<?xml version="1.0" encoding="UTF-8"?>

<!-- generated on 2025-10-07 22:17:19 by Eclipse SUMO sumo Version 1.24.0
<sumoConfiguration xmlns:xsi="http://www.w3.org/2001/XMLSchema-instance" xsi:noNamespaceSchemaLocation="http://sumo.dlr.de/xsd/sumoConfiguration.xsd">

    <input>
        <net-file value="continuous_flow_results/../demo.net.xml"/>
        <route-files value="continuous_flow_results/continuous_flow_adaptive.rou.xml"/>
    </input>

    <output>
        <tripinfo-output value="continuous_flow_results/tripinfo_adaptive.xml"/>
    </output>

    <time>
        <begin value="0"/>
        <end value="21600"/>
        <step-length value="1"/>
    </time>

    <processing>
        <time-to-teleport value="300"/>
    </processing>

    <report>
        <no-warnings value="true"/>
        <no-step-log value="true"/>
    </report>

    <traci_server>
        <remote-port value="65431"/>
    </traci_server>

</sumoConfiguration>
-->

<tripinfos xmlns:xsi="http://www.w3.org/2001/XMLSchema-instance" xsi:noNamespaceSchemaLocation="http://sumo.dlr.de/xsd/tripinfo_file.xsd">
    <tripinfo id="veh_0" depart="0.00" departLane="E1_0" departPos="2.30" departSpeed="0.00" departDelay="0.00" arrival="54.00" arrivalLane="E1.200_0" arrivalPos="210.34" arrivalSpeed="13.78" duration="54.00" routeLength="430.89" waitingTime="17.00" waitingCount="1" stopTime="0.00" timeLoss="24.08" rerouteNo="0" devices="tripinfo_veh_0" vType="motorcycle" speedFactor="1.06" vaporized=""/>
    <tripinfo id="veh_1" depart="15.00" departLane="E1_0" departPos="2.30" departSpeed="0.00" departDelay="0.00" arrival="56.00" arrivalLane="E1.200_1" arrivalPos="210.34" arrivalSpeed="12.10" duration="41.00" routeLength="430.89" waitingTime="0.00" waitingCount="0" stopTime="0.00" timeLoss="7.08" rerouteNo="0" devices="tripinfo_veh_1" vType="motorcycle" speedFactor="0.94" vaporized=""/>
    <tripinfo id="veh_2" depart="30.00" departLane="E1_0" departPos="4.60" departSpeed="0.00" departDelay="0.00" arrival="66.00" arrivalLane="E1.200_0" arrivalPos="210.34" arrivalSpeed="13.54" duration="36.00" routeLength="428.59" waitingTime="0.00" waitingCount="0" stopTime="0.00" timeLoss="4.54" rerouteNo="0" devices="tripinfo_veh_2" vType="car" speedFactor="1.01" vaporized=""/>
    <tripinfo id="veh_3" depart="45.00" departLane="E1_0" departPos="4.60" departSpeed="0.00" departDelay="0.00" arrival="79.00" arrivalLane="E1.200_0" arrivalPos="210.34" arrivalSpeed="14.27" duration="34.00" routeLength="428.59" waitingTime="0.00" waitingCount="0" stopTime="0.00" timeLoss="4.91" rerouteNo="0" devices="tripinfo_veh_3" vType="car" speedFactor="1.08" vaporized=""/>
    <tripinfo id="veh_4" depart="60.00" departLane="E1_0" departPos="2.30" departSpeed="0.00" departDelay="0.00" arrival="127.00" arrivalLane="E1.200_0" arrivalPos="210.34" arrivalSpeed="14.14" duration="67.00" routeLength="430.89" waitingTime="29.00" waitingCount="1" stopTime="0.00" timeLoss="36.51" rerouteNo="0" devices="tripinfo_veh_4" vType="motorcycle" speedFactor="1.03" vaporized=""/>
    <tripinfo id="veh_6" depart="90.00" departLane="E1_0" departPos="4.60" departSpeed="0.00" departDelay="0.00" arrival="129.00" arrivalLane="E1.200_0" arrivalPos="210.34" arrivalSpeed="13.73" duration="39.00" routeLength="428.59" waitingTime="0.00" waitingCount="0" stopTime="0.00" timeLoss="9.23" rerouteNo="0" devices="tripinfo_veh_6" vType="car" speedFactor="1.05" vaporized=""/>
    <tripinfo id="veh_5" depart="75.00" departLane="E1_0" departPos="2.30" departSpeed="0.00" departDelay="0.00" arrival="131.00" arrivalLane="E1.200_0" arrivalPos="210.34" arrivalSpeed="11.53" duration="56.00" routeLength="430.89" waitingTime="12.00" waitingCount="1" stopTime="0.00" timeLoss="18.23" rerouteNo="0" devices="tripinfo_veh_5" vType="motorcycle" speedFactor="0.83" vaporized=""/>
    <tripinfo id="veh_7" depart="105.00" departLane="E1_0" departPos="4.60" departSpeed="0.00" departDelay="0.00" arrival="144.00" arrivalLane="E1.200_0" arrivalPos="210.34" arrivalSpeed="11.79" duration="39.00" routeLength="428.59" waitingTime="0.00" waitingCount="0" stopTime="0.00" timeLoss="4.07" rerouteNo="0" devices="tripinfo_veh_7" vType="car" speedFactor="0.89" vaporized=""/>
    <tripinfo id="veh_8" depart="120.00" departLane="E1_0" departPos="4.60" departSpeed="0.00" departDelay="0.00" arrival="158.00" arrivalLane="E1.200_0" arrivalPos="210.34" arrivalSpeed="11.87" duration="38.00" routeLength="428.59" waitingTime="0.00" waitingCount="0" stopTime="0.00" timeLoss="4.35" rerouteNo="0" devices="tripinfo_veh_8" vType="car" speedFactor="0.94" vaporized=""/>
    <tripinfo id="veh_10" depart="150.00" departLane="E1_0" departPos="4.60" departSpeed="0.00" departDelay="0.00" arrival="206.00" arrivalLane="E1.200_1" arrivalPos="210.34" arrivalSpeed="14.65" duration="56.00" routeLength="428.59" waitingTime="17.00" waitingCount="1" stopTime="0.00" timeLoss="27.46" rerouteNo="0" devices="tripinfo_veh_10" vType="car" speedFactor="1.09" vaporized=""/>
    <tripinfo id="veh_9" depart="135.00" departLane="E1_0" departPos="4.60" departSpeed="0.00" departDelay="0.00" arrival="211.00" arrivalLane="E1.200_0" arrivalPos="210.34" arrivalSpeed="10.72" duration="76.00" routeLength="428.59" waitingTime="31.00" waitingCount="1" stopTime="0.00" timeLoss="39.13" rerouteNo="0" devices="tripinfo_veh_9" vType="car" speedFactor="0.86" vaporized=""/>
    <tripinfo id="veh_11" depart="165.00" departLane="E1_0" departPos="4.60" departSpeed="0.00" departDelay="0.00" arrival="212.00" arrivalLane="E1.200_0" arrivalPos="210.34" arrivalSpeed="13.08" duration="47.00" routeLength="428.59" waitingTime="3.00" waitingCount="1" stopTime="0.00" timeLoss="16.66" rerouteNo="0" devices="tripinfo_veh_11" vType="car" speedFactor="1.03" vaporized=""/>
    <tripinfo id="veh_12" depart="180.00" departLane="E1_0" departPos="4.60" departSpeed="0.00" departDelay="0.00" arrival="215.00" arrivalLane="E1.200_0" arrivalPos="210.34" arrivalSpeed="13.79" duration="35.00" routeLength="428.59" waitingTime="0.00" waitingCount="0" stopTime="0.00" timeLoss="5.43" rerouteNo="0" devices="tripinfo_veh_12" vType="car" speedFactor="1.05" vaporized=""/>
    <tripinfo id="veh_13" depart="195.00" departLane="E1_0" departPos="4.60" departSpeed="0.00" departDelay="0.00" arrival="228.00" arrivalLane="E1.200_0" arrivalPos="210.34" arrivalSpeed="15.12" duration="33.00" routeLength="428.59" waitingTime="0.00" waitingCount="0" stopTime="0.00" timeLoss="5.07" rerouteNo="0" devices="tripinfo_veh_13" vType="car" speedFactor="1.12" vaporized=""/>
    <tripinfo id="veh_14" depart="210.00" departLane="E1_0" departPos="4.60" departSpeed="0.00" departDelay="0.00" arrival="282.00" arrivalLane="E1.200_0" arrivalPos="210.34" arrivalSpeed="13.49" duration="72.00" routeLength="428.59" waitingTime="30.00" waitingCount="1" stopTime="0.00" timeLoss="39.99" rerouteNo="0" devices="tripinfo_veh_14" vType="car" speedFactor="0.99" vaporized=""/>
    <tripinfo id="veh_15" depart="225.00" departLane="E1_0" departPos="4.60" departSpeed="0.00" departDelay="0.00" arrival="282.00" arrivalLane="E1.200_1" arrivalPos="210.34" arrivalSpeed="12.49" duration="57.00" routeLength="428.59" waitingTime="14.00" waitingCount="1" stopTime="0.00" timeLoss="23.22" rerouteNo="0" devices="tripinfo_veh_15" vType="car" speedFactor="0.93" vaporized=""/>
    <tripinfo id="veh_16" depart="240.00" departLane="E1_0" departPos="2.30" departSpeed="0.00" departDelay="0.00" arrival="284.00" arrivalLane="E1.200_1" arrivalPos="210.34" arrivalSpeed="11.60" duration="44.00" routeLength="430.89" waitingTime="1.00" waitingCount="1" stopTime="0.00" timeLoss="8.55" rerouteNo="0" devices="tripinfo_veh_16" vType="motorcycle" speedFactor="0.88" vaporized=""/>
    <tripinfo id="veh_17" depart="255.00" departLane="E1_0" departPos="4.60" departSpeed="0.00" departDelay="0.00" arrival="293.00" arrivalLane="E1.200_0" arrivalPos="210.34" arrivalSpeed="12.01" duration="38.00" routeLength="428.59" waitingTime="0.00" waitingCount="0" stopTime="0.00" timeLoss="4.77" rerouteNo="0" devices="tripinfo_veh_17" vType="car" speedFactor="0.94" vaporized=""/>
    <tripinfo id="veh_18" depart="270.00" departLane="E1_0" departPos="4.60" departSpeed="0.00" departDelay="0.00" arrival="308.00" arrivalLane="E1.200_0" arrivalPos="210.34" arrivalSpeed="12.24" duration="38.00" routeLength="428.59" waitingTime="0.00" waitingCount="0" stopTime="0.00" timeLoss="4.71" rerouteNo="0" devices="tripinfo_veh_18" vType="car" speedFactor="0.94" vaporized=""/>
    <tripinfo id="veh_19" depart="285.00" departLane="E1_0" departPos="4.60" departSpeed="0.00" departDelay="0.00" arrival="358.00" arrivalLane="E1.200_0" arrivalPos="210.34" arrivalSpeed="15.81" duration="73.00" routeLength="428.59" waitingTime="35.00" waitingCount="1" stopTime="0.00" timeLoss="46.00" rerouteNo="0" devices="tripinfo_veh_19" vType="car" speedFactor="1.16" vaporized=""/>
    <tripinfo id="veh_20" depart="300.00" departLane="E1_0" departPos="4.60" departSpeed="0.00" departDelay="0.00" arrival="360.00" arrivalLane="E1.200_0" arrivalPos="210.34" arrivalSpeed="12.99" duration="60.00" routeLength="428.59" waitingTime="18.00" waitingCount="1" stopTime="0.00" timeLoss="29.19" rerouteNo="0" devices="tripinfo_veh_20" vType="car" speedFactor="1.02" vaporized=""/>
    <tripinfo id="veh_21" depart="315.00" departLane="E1_0" departPos="4.60" departSpeed="0.00" departDelay="0.00" arrival="362.00" arrivalLane="E1.200_0" arrivalPos="210.34" arrivalSpeed="13.19" duration="47.00" routeLength="428.59" waitingTime="4.00" waitingCount="1" stopTime="0.00" timeLoss="16.03" rerouteNo="0" devices="tripinfo_veh_21" vType="car" speedFactor="1.01" vaporized=""/>
    <tripinfo id="veh_22" depart="330.00" departLane="E1_0" departPos="4.60" departSpeed="0.00" departDelay="0.00" arrival="367.00" arrivalLane="E1.200_0" arrivalPos="210.34" arrivalSpeed="12.56" duration="37.00" routeLength="428.59" waitingTime="0.00" waitingCount="0" stopTime="0.00" timeLoss="4.59" rerouteNo="0" devices="tripinfo_veh_22" vType="car" speedFactor="0.97" vaporized=""/>
    <tripinfo id="veh_23" depart="345.00" departLane="E1_0" departPos="4.60" departSpeed="0.00" departDelay="0.00" arrival="385.00" arrivalLane="E1.200_0" arrivalPos="210.34" arrivalSpeed="12.19" duration="40.00" routeLength="428.59" waitingTime="0.00" waitingCount="0" stopTime="0.00" timeLoss="4.38" rerouteNo="0" devices="tripinfo_veh_23" vType="car" speedFactor="0.89" vaporized=""/>
    <tripinfo id="veh_24" depart="360.00" departLane="E1_0" departPos="2.30" departSpeed="0.00" departDelay="0.00" arrival="435.00" arrivalLane="E1.200_0" arrivalPos="210.34" arrivalSpeed="11.22" duration="75.00" routeLength="430.89" waitingTime="31.00" waitingCount="1" stopTime="0.00" timeLoss="37.18" rerouteNo="0" devices="tripinfo_veh_24" vType="motorcycle" speedFactor="0.83" vaporized=""/>
    <tripinfo id="veh_25" depart="375.00" departLane="E1_0" departPos="4.60" departSpeed="0.00" departDelay="0.00" arrival="435.00" arrivalLane="E1.200_1" arrivalPos="210.34" arrivalSpeed="11.18" duration="60.00" routeLength="428.59" waitingTime="16.00" waitingCount="1" stopTime="0.00" timeLoss="23.99" rerouteNo="0" devices="tripinfo_veh_25" vType="car" speedFactor="0.87" vaporized=""/>
    <tripinfo id="veh_26" depart="390.00" departLane="E1_0" departPos="4.60" departSpeed="0.00" departDelay="0.00" arrival="437.00" arrivalLane="E1.200_1" arrivalPos="210.34" arrivalSpeed="11.95" duration="47.00" routeLength="428.59" waitingTime="3.00" waitingCount="1" stopTime="0.00" timeLoss="12.59" rerouteNo="0" devices="tripinfo_veh_26" vType="car" speedFactor="0.92" vaporized=""/>
    <tripinfo id="veh_27" depart="405.00" departLane="E1_0" departPos="4.60" departSpeed="0.00" departDelay="0.00" arrival="443.00" arrivalLane="E1.200_0" arrivalPos="210.34" arrivalSpeed="12.70" duration="38.00" routeLength="428.59" waitingTime="0.00" waitingCount="0" stopTime="0.00" timeLoss="4.54" rerouteNo="0" devices="tripinfo_veh_27" vType="car" speedFactor="0.95" vaporized=""/>
    <tripinfo id="veh_28" depart="420.00" departLane="E1_0" departPos="4.60" departSpeed="0.00" departDelay="0.00" arrival="452.00" arrivalLane="E1.200_0" arrivalPos="210.34" arrivalSpeed="15.46" duration="32.00" routeLength="428.59" waitingTime="0.00" waitingCount="0" stopTime="0.00" timeLoss="4.44" rerouteNo="0" devices="tripinfo_veh_28" vType="car" speedFactor="1.13" vaporized=""/>
    <tripinfo id="veh_30" depart="450.00" departLane="E1_0" departPos="4.60" departSpeed="0.00" departDelay="0.00" arrival="510.00" arrivalLane="E1.200_1" arrivalPos="210.34" arrivalSpeed="15.25" duration="60.00" routeLength="428.59" waitingTime="21.00" waitingCount="1" stopTime="0.00" timeLoss="33.22" rerouteNo="0" devices="tripinfo_veh_30" vType="car" speedFactor="1.18" vaporized=""/>
    <tripinfo id="veh_31" depart="465.00" departLane="E1_0" departPos="2.30" departSpeed="0.00" departDelay="0.00" arrival="512.00" arrivalLane="E1.200_1" arrivalPos="210.34" arrivalSpeed="15.70" duration="47.00" routeLength="430.89" waitingTime="10.00" waitingCount="1" stopTime="0.00" timeLoss="19.25" rerouteNo="0" devices="tripinfo_veh_31" vType="motorcycle" speedFactor="1.15" vaporized=""/>
    <tripinfo id="veh_29" depart="435.00" departLane="E1_0" departPos="4.60" departSpeed="0.00" departDelay="0.00" arrival="513.00" arrivalLane="E1.200_0" arrivalPos="210.34" arrivalSpeed="12.68" duration="78.00" routeLength="428.59" waitingTime="35.00" waitingCount="1" stopTime="0.00" timeLoss="44.56" rerouteNo="0" devices="tripinfo_veh_29" vType="car" speedFactor="0.93" vaporized=""/>
    <tripinfo id="veh_32" depart="480.00" departLane="E1_0" departPos="4.60" departSpeed="0.00" departDelay="0.00" arrival="515.00" arrivalLane="E1.200_0" arrivalPos="210.34" arrivalSpeed="13.06" duration="35.00" routeLength="428.59" waitingTime="0.00" waitingCount="0" stopTime="0.00" timeLoss="4.02" rerouteNo="0" devices="tripinfo_veh_32" vType="car" speedFactor="1.01" vaporized=""/>
    <tripinfo id="veh_33" depart="495.00" departLane="E1_0" departPos="4.60" departSpeed="0.00" departDelay="0.00" arrival="526.00" arrivalLane="E1.200_0" arrivalPos="210.34" arrivalSpeed="15.80" duration="31.00" routeLength="428.59" waitingTime="0.00" waitingCount="0" stopTime="0.00" timeLoss="4.50" rerouteNo="0" devices="tripinfo_veh_33" vType="car" speedFactor="1.17" vaporized=""/>
    <tripinfo id="veh_34" depart="510.00" departLane="E1_0" departPos="2.30" departSpeed="0.00" departDelay="0.00" arrival="584.00" arrivalLane="E1.200_0" arrivalPos="210.34" arrivalSpeed="13.14" duration="74.00" routeLength="430.89" waitingTime="35.00" waitingCount="1" stopTime="0.00" timeLoss="41.98" rerouteNo="0" devices="tripinfo_veh_34" vType="motorcycle" speedFactor="0.99" vaporized=""/>
    <tripinfo id="veh_35" depart="525.00" departLane="E1_0" departPos="4.60" departSpeed="0.00" departDelay="0.00" arrival="585.00" arrivalLane="E1.200_1" arrivalPos="210.34" arrivalSpeed="13.13" duration="60.00" routeLength="428.59" waitingTime="18.00" waitingCount="1" stopTime="0.00" timeLoss="29.00" rerouteNo="0" devices="tripinfo_veh_35" vType="car" speedFactor="1.02" vaporized=""/>
    <tripinfo id="veh_36" depart="540.00" departLane="E1_0" departPos="2.30" departSpeed="0.00" departDelay="0.00" arrival="586.00" arrivalLane="E1.200_0" arrivalPos="210.34" arrivalSpeed="12.60" duration="46.00" routeLength="430.89" waitingTime="6.00" waitingCount="1" stopTime="0.00" timeLoss="13.47" rerouteNo="0" devices="tripinfo_veh_36" vType="motorcycle" speedFactor="0.97" vaporized=""/>
    <tripinfo id="veh_37" depart="555.00" departLane="E1_0" departPos="4.60" departSpeed="0.00" departDelay="0.00" arrival="587.00" arrivalLane="E1.200_0" arrivalPos="210.34" arrivalSpeed="15.41" duration="32.00" routeLength="428.59" waitingTime="0.00" waitingCount="0" stopTime="0.00" timeLoss="5.77" rerouteNo="0" devices="tripinfo_veh_37" vType="car" speedFactor="1.18" vaporized=""/>
    <tripinfo id="veh_38" depart="570.00" departLane="E1_0" departPos="2.30" departSpeed="0.00" departDelay="0.00" arrival="601.00" arrivalLane="E1.200_0" arrivalPos="210.34" arrivalSpeed="15.01" duration="31.00" routeLength="430.89" waitingTime="0.00" waitingCount="0" stopTime="0.00" timeLoss="2.79" rerouteNo="0" devices="tripinfo_veh_38" vType="motorcycle" speedFactor="1.10" vaporized=""/>
    <tripinfo id="veh_40" depart="600.00" departLane="E1_0" departPos="4.60" departSpeed="0.00" departDelay="0.00" arrival="663.00" arrivalLane="E1.200_0" arrivalPos="210.34" arrivalSpeed="13.71" duration="63.00" routeLength="428.59" waitingTime="23.00" waitingCount="1" stopTime="0.00" timeLoss="32.83" rerouteNo="0" devices="tripinfo_veh_40" vType="car" speedFactor="1.03" vaporized=""/>
    <tripinfo id="veh_42" depart="630.00" departLane="E1_0" departPos="2.30" departSpeed="0.00" departDelay="0.00" arrival="664.00" arrivalLane="E1.200_1" arrivalPos="210.34" arrivalSpeed="14.61" duration="34.00" routeLength="430.89" waitingTime="0.00" waitingCount="0" stopTime="0.00" timeLoss="5.33" rerouteNo="0" devices="tripinfo_veh_42" vType="motorcycle" speedFactor="1.09" vaporized=""/>
    <tripinfo id="veh_39" depart="585.00" departLane="E1_0" departPos="4.60" departSpeed="0.00" departDelay="0.00" arrival="666.00" arrivalLane="E1.200_0" arrivalPos="210.34" arrivalSpeed="11.63" duration="81.00" routeLength="428.59" waitingTime="36.00" waitingCount="1" stopTime="0.00" timeLoss="45.99" rerouteNo="0" devices="tripinfo_veh_39" vType="car" speedFactor="0.90" vaporized=""/>
    <tripinfo id="veh_41" depart="615.00" departLane="E1_0" departPos="4.60" departSpeed="0.00" departDelay="0.00" arrival="667.00" arrivalLane="E1.200_0" arrivalPos="210.34" arrivalSpeed="12.05" duration="52.00" routeLength="428.59" waitingTime="8.00" waitingCount="1" stopTime="0.00" timeLoss="19.71" rerouteNo="0" devices="tripinfo_veh_41" vType="car" speedFactor="0.96" vaporized=""/>
    <tripinfo id="veh_43" depart="645.00" departLane="E1_0" departPos="4.60" departSpeed="0.00" departDelay="0.00" arrival="680.00" arrivalLane="E1.200_0" arrivalPos="210.34" arrivalSpeed="13.96" duration="35.00" routeLength="428.59" waitingTime="0.00" waitingCount="0" stopTime="0.00" timeLoss="4.85" rerouteNo="0" devices="tripinfo_veh_43" vType="car" speedFactor="1.04" vaporized=""/>
    <tripinfo id="veh_44" depart="660.00" departLane="E1_0" departPos="2.30" departSpeed="0.00" departDelay="0.00" arrival="735.00" arrivalLane="E1.200_0" arrivalPos="210.34" arrivalSpeed="13.81" duration="75.00" routeLength="430.89" waitingTime="37.00" waitingCount="1" stopTime="0.00" timeLoss="44.69" rerouteNo="0" devices="tripinfo_veh_44" vType="motorcycle" speedFactor="1.04" vaporized=""/>
    <tripinfo id="veh_45" depart="675.00" departLane="E1_0" departPos="4.60" departSpeed="0.00" departDelay="0.00" arrival="736.00" arrivalLane="E1.200_0" arrivalPos="210.34" arrivalSpeed="14.79" duration="61.00" routeLength="428.59" waitingTime="22.00" waitingCount="1" stopTime="0.00" timeLoss="31.93" rerouteNo="0" devices="tripinfo_veh_45" vType="car" speedFactor="1.09" vaporized=""/>
    <tripinfo id="veh_46" depart="690.00" departLane="E1_0" departPos="2.30" departSpeed="0.00" departDelay="0.00" arrival="737.00" arrivalLane="E1.200_0" arrivalPos="210.34" arrivalSpeed="13.40" duration="47.00" routeLength="430.89" waitingTime="9.00" waitingCount="1" stopTime="0.00" timeLoss="15.70" rerouteNo="0" devices="tripinfo_veh_46" vType="motorcycle" speedFactor="1.00" vaporized=""/>
    <tripinfo id="veh_47" depart="705.00" departLane="E1_0" departPos="4.60" departSpeed="0.00" departDelay="0.00" arrival="744.00" arrivalLane="E1.200_0" arrivalPos="210.34" arrivalSpeed="11.53" duration="39.00" routeLength="428.59" waitingTime="0.00" waitingCount="0" stopTime="0.00" timeLoss="4.07" rerouteNo="0" devices="tripinfo_veh_47" vType="car" speedFactor="0.90" vaporized=""/>
    <tripinfo id="veh_48" depart="720.00" departLane="E1_0" departPos="4.60" departSpeed="0.00" departDelay="0.00" arrival="760.00" arrivalLane="E1.200_0" arrivalPos="210.34" arrivalSpeed="11.82" duration="40.00" routeLength="428.59" waitingTime="0.00" waitingCount="0" stopTime="0.00" timeLoss="4.46" rerouteNo="0" devices="tripinfo_veh_48" vType="car" speedFactor="0.88" vaporized=""/>
    <tripinfo id="veh_49" depart="735.00" departLane="E1_0" departPos="4.60" departSpeed="0.00" departDelay="0.00" arrival="819.00" arrivalLane="E1.200_0" arrivalPos="210.34" arrivalSpeed="11.41" duration="84.00" routeLength="428.59" waitingTime="38.00" waitingCount="1" stopTime="0.00" timeLoss="47.60" rerouteNo="0" devices="tripinfo_veh_49" vType="car" speedFactor="0.85" vaporized=""/>
    <tripinfo id="veh_50" depart="750.00" departLane="E1_0" departPos="4.60" departSpeed="0.00" departDelay="0.00" arrival="819.00" arrivalLane="E1.200_1" arrivalPos="210.34" arrivalSpeed="11.07" duration="69.00" routeLength="428.59" waitingTime="21.00" waitingCount="1" stopTime="0.00" timeLoss="32.37" rerouteNo="0" devices="tripinfo_veh_50" vType="car" speedFactor="0.85" vaporized=""/>
    <tripinfo id="veh_52" depart="780.00" departLane="E1_0" departPos="2.30" departSpeed="0.00" departDelay="0.00" arrival="820.00" arrivalLane="E1.200_1" arrivalPos="210.34" arrivalSpeed="13.33" duration="40.00" routeLength="430.89" waitingTime="0.00" waitingCount="0" stopTime="0.00" timeLoss="9.48" rerouteNo="0" devices="tripinfo_veh_52" vType="motorcycle" speedFactor="1.02" vaporized=""/>
    <tripinfo id="veh_51" depart="765.00" departLane="E1_0" departPos="4.60" departSpeed="0.00" departDelay="0.00" arrival="821.00" arrivalLane="E1.200_0" arrivalPos="210.34" arrivalSpeed="14.87" duration="56.00" routeLength="428.59" waitingTime="13.00" waitingCount="1" stopTime="0.00" timeLoss="29.00" rerouteNo="0" devices="tripinfo_veh_51" vType="car" speedFactor="1.17" vaporized=""/>
    <tripinfo id="veh_53" depart="795.00" departLane="E1_0" departPos="4.60" departSpeed="0.00" departDelay="0.00" arrival="828.00" arrivalLane="E1.200_0" arrivalPos="210.34" arrivalSpeed="14.09" duration="33.00" routeLength="428.59" waitingTime="0.00" waitingCount="0" stopTime="0.00" timeLoss="4.08" rerouteNo="0" devices="tripinfo_veh_53" vType="car" speedFactor="1.10" vaporized=""/>
    <tripinfo id="veh_54" depart="810.00" departLane="E1_0" departPos="4.60" departSpeed="0.00" departDelay="0.00" arrival="889.00" arrivalLane="E1.200_0" arrivalPos="210.34" arrivalSpeed="13.58" duration="79.00" routeLength="428.59" waitingTime="39.00" waitingCount="1" stopTime="0.00" timeLoss="47.79" rerouteNo="0" devices="tripinfo_veh_54" vType="car" speedFactor="1.00" vaporized=""/>
    <tripinfo id="veh_55" depart="825.00" departLane="E1_0" departPos="4.60" departSpeed="0.00" departDelay="0.00" arrival="889.00" arrivalLane="E1.200_1" arrivalPos="210.34" arrivalSpeed="12.83" duration="64.00" routeLength="428.59" waitingTime="22.00" waitingCount="1" stopTime="0.00" timeLoss="32.50" rerouteNo="0" devices="tripinfo_veh_55" vType="car" speedFactor="1.00" vaporized=""/>
    <tripinfo id="veh_57" depart="855.00" departLane="E1_0" departPos="4.60" departSpeed="0.00" departDelay="0.00" arrival="891.00" arrivalLane="E1.200_1" arrivalPos="210.34" arrivalSpeed="15.79" duration="36.00" routeLength="428.59" waitingTime="0.00" waitingCount="0" stopTime="0.00" timeLoss="8.05" rerouteNo="0" devices="tripinfo_veh_57" vType="car" speedFactor="1.14" vaporized=""/>
    <tripinfo id="veh_56" depart="840.00" departLane="E1_0" departPos="2.30" departSpeed="0.00" departDelay="0.00" arrival="892.00" arrivalLane="E1.200_0" arrivalPos="210.34" arrivalSpeed="11.56" duration="52.00" routeLength="430.89" waitingTime="9.00" waitingCount="1" stopTime="0.00" timeLoss="17.46" rerouteNo="0" devices="tripinfo_veh_56" vType="motorcycle" speedFactor="0.90" vaporized=""/>
    <tripinfo id="veh_58" depart="870.00" departLane="E1_0" departPos="2.30" departSpeed="0.00" departDelay="0.00" arrival="904.00" arrivalLane="E1.200_0" arrivalPos="210.34" arrivalSpeed="13.47" duration="34.00" routeLength="430.89" waitingTime="0.00" waitingCount="0" stopTime="0.00" timeLoss="2.86" rerouteNo="0" devices="tripinfo_veh_58" vType="motorcycle" speedFactor="1.02" vaporized=""/>
    <tripinfo id="veh_60" depart="900.00" departLane="E1_0" departPos="4.60" departSpeed="0.00" departDelay="0.00" arrival="967.00" arrivalLane="E1.200_1" arrivalPos="210.34" arrivalSpeed="14.61" duration="67.00" routeLength="428.59" waitingTime="28.00" waitingCount="1" stopTime="0.00" timeLoss="38.11" rerouteNo="0" devices="tripinfo_veh_60" vType="car" speedFactor="1.08" vaporized=""/>
    <tripinfo id="veh_59" depart="885.00" departLane="E1_0" departPos="4.60" departSpeed="0.00" departDelay="0.00" arrival="969.00" arrivalLane="E1.200_0" arrivalPos="210.34" arrivalSpeed="12.81" duration="84.00" routeLength="428.59" waitingTime="41.00" waitingCount="1" stopTime="0.00" timeLoss="51.24" rerouteNo="0" devices="tripinfo_veh_59" vType="car" speedFactor="0.97" vaporized=""/>
    <tripinfo id="veh_62" depart="930.00" departLane="E1_0" departPos="2.30" departSpeed="0.00" departDelay="0.00" arrival="969.00" arrivalLane="E1.200_1" arrivalPos="210.34" arrivalSpeed="13.26" duration="39.00" routeLength="430.89" waitingTime="0.00" waitingCount="0" stopTime="0.00" timeLoss="8.39" rerouteNo="0" devices="tripinfo_veh_62" vType="motorcycle" speedFactor="1.02" vaporized=""/>
    <tripinfo id="veh_61" depart="915.00" departLane="E1_0" departPos="2.30" departSpeed="0.00" departDelay="0.00" arrival="970.00" arrivalLane="E1.200_0" arrivalPos="210.34" arrivalSpeed="15.54" duration="55.00" routeLength="430.89" waitingTime="16.00" waitingCount="1" stopTime="0.00" timeLoss="26.84" rerouteNo="0" devices="tripinfo_veh_61" vType="motorcycle" speedFactor="1.12" vaporized=""/>
    <tripinfo id="veh_63" depart="945.00" departLane="E1_0" departPos="2.30" departSpeed="0.00" departDelay="0.00" arrival="980.00" arrivalLane="E1.200_0" arrivalPos="210.34" arrivalSpeed="12.76" duration="35.00" routeLength="430.89" waitingTime="0.00" waitingCount="0" stopTime="0.00" timeLoss="3.39" rerouteNo="0" devices="tripinfo_veh_63" vType="motorcycle" speedFactor="0.99" vaporized=""/>
    <tripinfo id="veh_64" depart="960.00" departLane="E1_0" departPos="4.60" departSpeed="0.00" departDelay="0.00" arrival="1042.00" arrivalLane="E1.200_0" arrivalPos="210.34" arrivalSpeed="11.89" duration="82.00" routeLength="428.59" waitingTime="39.00" waitingCount="1" stopTime="0.00" timeLoss="48.87" rerouteNo="0" devices="tripinfo_veh_64" vType="car" speedFactor="0.94" vaporized=""/>
    <tripinfo id="veh_65" depart="975.00" departLane="E1_0" departPos="2.30" departSpeed="0.00" departDelay="0.00" arrival="1042.00" arrivalLane="E1.200_1" arrivalPos="210.34" arrivalSpeed="11.34" duration="67.00" routeLength="430.89" waitingTime="25.00" waitingCount="1" stopTime="0.00" timeLoss="31.32" rerouteNo="0" devices="tripinfo_veh_65" vType="motorcycle" speedFactor="0.88" vaporized=""/>
    <tripinfo id="veh_66" depart="990.00" departLane="E1_0" departPos="2.30" departSpeed="0.00" departDelay="0.00" arrival="1043.00" arrivalLane="E1.200_1" arrivalPos="210.34" arrivalSpeed="12.59" duration="53.00" routeLength="430.89" waitingTime="11.00" waitingCount="1" stopTime="0.00" timeLoss="18.71" rerouteNo="0" devices="tripinfo_veh_66" vType="motorcycle" speedFactor="0.91" vaporized=""/>
    <tripinfo id="veh_67" depart="1005.00" departLane="E1_0" departPos="4.60" departSpeed="0.00" departDelay="0.00" arrival="1044.00" arrivalLane="E1.200_0" arrivalPos="210.34" arrivalSpeed="12.54" duration="39.00" routeLength="428.59" waitingTime="0.00" waitingCount="0" stopTime="0.00" timeLoss="5.23" rerouteNo="0" devices="tripinfo_veh_67" vType="car" speedFactor="0.91" vaporized=""/>
    <tripinfo id="veh_68" depart="1020.00" departLane="E1_0" departPos="2.30" departSpeed="0.00" departDelay="0.00" arrival="1053.00" arrivalLane="E1.200_0" arrivalPos="210.34" arrivalSpeed="13.99" duration="33.00" routeLength="430.89" waitingTime="0.00" waitingCount="0" stopTime="0.00" timeLoss="2.85" rerouteNo="0" devices="tripinfo_veh_68" vType="motorcycle" speedFactor="1.04" vaporized=""/>
    <tripinfo id="veh_70" depart="1050.00" departLane="E1_0" departPos="2.30" departSpeed="0.00" departDelay="0.00" arrival="1118.00" arrivalLane="E1.200_1" arrivalPos="210.34" arrivalSpeed="14.21" duration="68.00" routeLength="430.89" waitingTime="30.00" waitingCount="1" stopTime="0.00" timeLoss="37.58" rerouteNo="0" devices="tripinfo_veh_70" vType="motorcycle" speedFactor="1.02" vaporized=""/>
    <tripinfo id="veh_69" depart="1035.00" departLane="E1_0" departPos="4.60" departSpeed="0.00" departDelay="0.00" arrival="1120.00" arrivalLane="E1.200_0" arrivalPos="210.34" arrivalSpeed="13.80" duration="85.00" routeLength="428.59" waitingTime="45.00" waitingCount="1" stopTime="0.00" timeLoss="54.40" rerouteNo="0" devices="tripinfo_veh_69" vType="car" speedFactor="1.02" vaporized=""/>
    <tripinfo id="veh_71" depart="1065.00" departLane="E1_0" departPos="4.60" departSpeed="0.00" departDelay="0.00" arrival="1122.00" arrivalLane="E1.200_1" arrivalPos="210.34" arrivalSpeed="12.48" duration="57.00" routeLength="428.59" waitingTime="14.00" waitingCount="1" stopTime="0.00" timeLoss="24.58" rerouteNo="0" devices="tripinfo_veh_71" vType="car" speedFactor="0.97" vaporized=""/>
    <tripinfo id="veh_72" depart="1080.00" departLane="E1_0" departPos="4.60" departSpeed="0.00" departDelay="0.00" arrival="1123.00" arrivalLane="E1.200_0" arrivalPos="210.34" arrivalSpeed="12.77" duration="43.00" routeLength="428.59" waitingTime="0.00" waitingCount="0" stopTime="0.00" timeLoss="9.73" rerouteNo="0" devices="tripinfo_veh_72" vType="car" speedFactor="0.94" vaporized=""/>