<?xml version="1.0" encoding="UTF-8"?>

<!-- generated on 2025-10-07 22:15:44 by Eclipse SUMO sumo Version 1.24.0
<sumoConfiguration xmlns:xsi="http://www.w3.org/2001/XMLSchema-instance" xsi:noNamespaceSchemaLocation="http://sumo.dlr.de/xsd/sumoConfiguration.xsd">

    <input>
        <net-file value="continuous_flow_results/../demo.net.xml"/>
        <route-files value="continuous_flow_results/continuous_flow_baseline.rou.xml"/>
    </input>

    <output>
        <tripinfo-output value="continuous_flow_results/tripinfo_baseline.xml"/>
    </output>

    <time>
        <begin value="0"/>
        <end value="21600"/>
        <step-length value="1"/>
    </time>

    <processing>
        <time-to-teleport value="300"/>
    </processing>

    <report>
        <no-warnings value="true"/>
        <no-step-log value="true"/>
    </report>

    <traci_server>
        <remote-port value="52454"/>
    </traci_server>

</sumoConfiguration>
-->

<tripinfos xmlns:xsi="http://www.w3.org/2001/XMLSchema-instance" xsi:noNamespaceSchemaLocation="http://sumo.dlr.de/xsd/tripinfo_file.xsd">
    <tripinfo id="veh_0" depart="0.00" departLane="E1_0" departPos="4.60" departSpeed="0.00" departDelay="0.00" arrival="55.00" arrivalLane="E1.200_0" arrivalPos="210.34" arrivalSpeed="14.68" duration="55.00" routeLength="428.59" waitingTime="15.00" waitingCount="1" stopTime="0.00" timeLoss="25.45" rerouteNo="0" devices="tripinfo_veh_0" vType="car" speedFactor="1.06" vaporized=""/>
    <tripinfo id="veh_1" depart="15.00" departLane="E1_0" departPos="4.60" departSpeed="0.00" departDelay="0.00" arrival="56.00" arrivalLane="E1.200_1" arrivalPos="210.34" arrivalSpeed="11.93" duration="41.00" routeLength="428.59" waitingTime="0.00" waitingCount="0" stopTime="0.00" timeLoss="7.94" rerouteNo="0" devices="tripinfo_veh_1" vType="car" speedFactor="0.94" vaporized=""/>
    <tripinfo id="veh_2" depart="30.00" departLane="E1_0" departPos="2.30" departSpeed="0.00" departDelay="0.00" arrival="96.00" arrivalLane="E1.200_0" arrivalPos="210.34" arrivalSpeed="13.88" duration="66.00" routeLength="430.89" waitingTime="28.00" waitingCount="1" stopTime="0.00" timeLoss="35.10" rerouteNo="0" devices="tripinfo_veh_2" vType="motorcycle" speedFactor="1.01" vaporized=""/>
    <tripinfo id="veh_3" depart="45.00" departLane="E1_0" departPos="4.60" departSpeed="0.00" departDelay="0.00" arrival="97.00" arrivalLane="E1.200_1" arrivalPos="210.34" arrivalSpeed="14.72" duration="52.00" routeLength="428.59" waitingTime="12.00" waitingCount="1" stopTime="0.00" timeLoss="23.28" rerouteNo="0" devices="tripinfo_veh_3" vType="car" speedFactor="1.08" vaporized=""/>
    <tripinfo id="veh_4" depart="60.00" departLane="E1_0" departPos="2.30" departSpeed="0.00" departDelay="0.00" arrival="98.00" arrivalLane="E1.200_0" arrivalPos="210.34" arrivalSpeed="13.50" duration="38.00" routeLength="430.89" waitingTime="0.00" waitingCount="0" stopTime="0.00" timeLoss="7.27" rerouteNo="0" devices="tripinfo_veh_4" vType="motorcycle" speedFactor="1.03" vaporized=""/>
    <tripinfo id="veh_6" depart="90.00" departLane="E1_0" departPos="4.60" departSpeed="0.00" departDelay="0.00" arrival="145.00" arrivalLane="E1.200_0" arrivalPos="210.34" arrivalSpeed="14.38" duration="55.00" routeLength="428.59" waitingTime="15.00" waitingCount="1" stopTime="0.00" timeLoss="25.08" rerouteNo="0" devices="tripinfo_veh_6" vType="car" speedFactor="1.05" vaporized=""/>
    <tripinfo id="veh_5" depart="75.00" departLane="E1_0" departPos="2.30" departSpeed="0.00" departDelay="0.00" arrival="148.00" arrivalLane="E1.200_0" arrivalPos="210.34" arrivalSpeed="10.50" duration="73.00" routeLength="430.89" waitingTime="28.00" waitingCount="1" stopTime="0.00" timeLoss="35.09" rerouteNo="0" devices="tripinfo_veh_5" vType="motorcycle" speedFactor="0.83" vaporized=""/>
    <tripinfo id="veh_7" depart="105.00" departLane="E1_0" departPos="4.60" departSpeed="0.00" departDelay="0.00" arrival="150.00" arrivalLane="E1.200_0" arrivalPos="210.34" arrivalSpeed="11.17" duration="45.00" routeLength="428.59" waitingTime="1.00" waitingCount="1" stopTime="0.00" timeLoss="9.34" rerouteNo="0" devices="tripinfo_veh_7" vType="car" speedFactor="0.89" vaporized=""/>
    <tripinfo id="veh_8" depart="120.00" departLane="E1_0" departPos="4.60" departSpeed="0.00" departDelay="0.00" arrival="189.00" arrivalLane="E1.200_0" arrivalPos="210.34" arrivalSpeed="12.67" duration="69.00" routeLength="428.59" waitingTime="25.00" waitingCount="1" stopTime="0.00" timeLoss="35.74" rerouteNo="0" devices="tripinfo_veh_8" vType="car" speedFactor="0.94" vaporized=""/>
    <tripinfo id="veh_9" depart="135.00" departLane="E1_0" departPos="2.30" departSpeed="0.00" departDelay="0.00" arrival="189.00" arrivalLane="E1.200_1" arrivalPos="210.34" arrivalSpeed="11.15" duration="54.00" routeLength="430.89" waitingTime="12.00" waitingCount="1" stopTime="0.00" timeLoss="17.67" rerouteNo="0" devices="tripinfo_veh_9" vType="motorcycle" speedFactor="0.86" vaporized=""/>
    <tripinfo id="veh_10" depart="150.00" departLane="E1_0" departPos="4.60" departSpeed="0.00" departDelay="0.00" arrival="191.00" arrivalLane="E1.200_1" arrivalPos="210.34" arrivalSpeed="14.91" duration="41.00" routeLength="428.59" waitingTime="0.00" waitingCount="0" stopTime="0.00" timeLoss="12.09" rerouteNo="0" devices="tripinfo_veh_10" vType="car" speedFactor="1.09" vaporized=""/>
    <tripinfo id="veh_12" depart="180.00" departLane="E1_0" departPos="4.60" departSpeed="0.00" departDelay="0.00" arrival="235.00" arrivalLane="E1.200_1" arrivalPos="210.34" arrivalSpeed="13.99" duration="55.00" routeLength="428.59" waitingTime="16.00" waitingCount="1" stopTime="0.00" timeLoss="25.02" rerouteNo="0" devices="tripinfo_veh_12" vType="car" speedFactor="1.05" vaporized=""/>
    <tripinfo id="veh_11" depart="165.00" departLane="E1_0" departPos="4.60" departSpeed="0.00" departDelay="0.00" arrival="236.00" arrivalLane="E1.200_0" arrivalPos="210.34" arrivalSpeed="13.05" duration="71.00" routeLength="428.59" waitingTime="29.00" waitingCount="1" stopTime="0.00" timeLoss="40.29" rerouteNo="0" devices="tripinfo_veh_11" vType="car" speedFactor="1.03" vaporized=""/>
    <tripinfo id="veh_13" depart="195.00" departLane="E1_0" departPos="4.60" departSpeed="0.00" departDelay="0.00" arrival="237.00" arrivalLane="E1.200_0" arrivalPos="210.34" arrivalSpeed="14.88" duration="42.00" routeLength="428.59" waitingTime="1.00" waitingCount="1" stopTime="0.00" timeLoss="14.44" rerouteNo="0" devices="tripinfo_veh_13" vType="car" speedFactor="1.12" vaporized=""/>
    <tripinfo id="veh_14" depart="210.00" departLane="E1_0" departPos="2.30" departSpeed="0.00" departDelay="0.00" arrival="276.00" arrivalLane="E1.200_0" arrivalPos="210.34" arrivalSpeed="13.13" duration="66.00" routeLength="430.89" waitingTime="28.00" waitingCount="1" stopTime="0.00" timeLoss="34.67" rerouteNo="0" devices="tripinfo_veh_14" vType="motorcycle" speedFactor="0.99" vaporized=""/>
    <tripinfo id="veh_15" depart="225.00" departLane="E1_0" departPos="4.60" departSpeed="0.00" departDelay="0.00" arrival="279.00" arrivalLane="E1.200_1" arrivalPos="210.34" arrivalSpeed="11.63" duration="54.00" routeLength="428.59" waitingTime="10.00" waitingCount="1" stopTime="0.00" timeLoss="20.55" rerouteNo="0" devices="tripinfo_veh_15" vType="car" speedFactor="0.93" vaporized=""/>
    <tripinfo id="veh_16" depart="240.00" departLane="E1_0" departPos="2.30" departSpeed="0.00" departDelay="0.00" arrival="280.00" arrivalLane="E1.200_0" arrivalPos="210.34" arrivalSpeed="11.28" duration="40.00" routeLength="430.89" waitingTime="0.00" waitingCount="0" stopTime="0.00" timeLoss="4.52" rerouteNo="0" devices="tripinfo_veh_16" vType="motorcycle" speedFactor="0.88" vaporized=""/>
    <tripinfo id="veh_18" depart="270.00" departLane="E1_0" departPos="2.30" departSpeed="0.00" departDelay="0.00" arrival="326.00" arrivalLane="E1.200_1" arrivalPos="210.34" arrivalSpeed="12.66" duration="56.00" routeLength="430.89" waitingTime="16.00" waitingCount="1" stopTime="0.00" timeLoss="21.90" rerouteNo="0" devices="tripinfo_veh_18" vType="motorcycle" speedFactor="0.94" vaporized=""/>
    <tripinfo id="veh_17" depart="255.00" departLane="E1_0" departPos="4.60" departSpeed="0.00" departDelay="0.00" arrival="327.00" arrivalLane="E1.200_0" arrivalPos="210.34" arrivalSpeed="12.80" duration="72.00" routeLength="428.59" waitingTime="28.00" waitingCount="1" stopTime="0.00" timeLoss="38.93" rerouteNo="0" devices="tripinfo_veh_17" vType="car" speedFactor="0.94" vaporized=""/>
    <tripinfo id="veh_19" depart="285.00" departLane="E1_0" departPos="2.30" departSpeed="0.00" departDelay="0.00" arrival="327.00" arrivalLane="E1.200_1" arrivalPos="210.34" arrivalSpeed="15.40" duration="42.00" routeLength="430.89" waitingTime="2.00" waitingCount="1" stopTime="0.00" timeLoss="14.70" rerouteNo="0" devices="tripinfo_veh_19" vType="motorcycle" speedFactor="1.16" vaporized=""/>
    <tripinfo id="veh_21" depart="315.00" departLane="E1_0" departPos="2.30" departSpeed="0.00" departDelay="0.00" arrival="367.00" arrivalLane="E1.200_1" arrivalPos="210.34" arrivalSpeed="13.40" duration="52.00" routeLength="430.89" waitingTime="13.00" waitingCount="1" stopTime="0.00" timeLoss="20.35" rerouteNo="0" devices="tripinfo_veh_21" vType="motorcycle" speedFactor="1.01" vaporized=""/>
    <tripinfo id="veh_20" depart="300.00" departLane="E1_0" departPos="4.60" departSpeed="0.00" departDelay="0.00" arrival="368.00" arrivalLane="E1.200_0" arrivalPos="210.34" arrivalSpeed="14.14" duration="68.00" routeLength="428.59" waitingTime="26.00" waitingCount="1" stopTime="0.00" timeLoss="37.04" rerouteNo="0" devices="tripinfo_veh_20" vType="car" speedFactor="1.02" vaporized=""/>
    <tripinfo id="veh_22" depart="330.00" departLane="E1_0" departPos="4.60" departSpeed="0.00" departDelay="0.00" arrival="369.00" arrivalLane="E1.200_1" arrivalPos="210.34" arrivalSpeed="13.28" duration="39.00" routeLength="428.59" waitingTime="0.00" waitingCount="0" stopTime="0.00" timeLoss="6.66" rerouteNo="0" devices="tripinfo_veh_22" vType="car" speedFactor="0.97" vaporized=""/>
    <tripinfo id="veh_23" depart="345.00" departLane="E1_0" departPos="2.30" departSpeed="0.00" departDelay="0.00" arrival="417.00" arrivalLane="E1.200_0" arrivalPos="210.34" arrivalSpeed="11.40" duration="72.00" routeLength="430.89" waitingTime="30.00" waitingCount="1" stopTime="0.00" timeLoss="36.77" rerouteNo="0" devices="tripinfo_veh_23" vType="motorcycle" speedFactor="0.89" vaporized=""/>
    <tripinfo id="veh_24" depart="360.00" departLane="E1_0" departPos="4.60" departSpeed="0.00" departDelay="0.00" arrival="419.00" arrivalLane="E1.200_1" arrivalPos="210.34" arrivalSpeed="10.54" duration="59.00" routeLength="428.59" waitingTime="13.00" waitingCount="1" stopTime="0.00" timeLoss="21.40" rerouteNo="0" devices="tripinfo_veh_24" vType="car" speedFactor="0.83" vaporized=""/>
    <tripinfo id="veh_25" depart="375.00" departLane="E1_0" departPos="4.60" departSpeed="0.00" departDelay="0.00" arrival="419.00" arrivalLane="E1.200_0" arrivalPos="210.34" arrivalSpeed="11.57" duration="44.00" routeLength="428.59" waitingTime="0.00" waitingCount="0" stopTime="0.00" timeLoss="8.63" rerouteNo="0" devices="tripinfo_veh_25" vType="car" speedFactor="0.87" vaporized=""/>
    <tripinfo id="veh_27" depart="405.00" departLane="E1_0" departPos="4.60" departSpeed="0.00" departDelay="0.00" arrival="459.00" arrivalLane="E1.200_1" arrivalPos="210.34" arrivalSpeed="12.24" duration="54.00" routeLength="428.59" waitingTime="11.00" waitingCount="1" stopTime="0.00" timeLoss="20.68" rerouteNo="0" devices="tripinfo_veh_27" vType="car" speedFactor="0.95" vaporized=""/>
    <tripinfo id="veh_26" depart="390.00" departLane="E1_0" departPos="4.60" departSpeed="0.00" departDelay="0.00" arrival="460.00" arrivalLane="E1.200_0" arrivalPos="210.34" arrivalSpeed="11.85" duration="70.00" routeLength="428.59" waitingTime="27.00" waitingCount="1" stopTime="0.00" timeLoss="35.61" rerouteNo="0" devices="tripinfo_veh_26" vType="car" speedFactor="0.92" vaporized=""/>
    <tripinfo id="veh_28" depart="420.00" departLane="E1_0" departPos="4.60" departSpeed="0.00" departDelay="0.00" arrival="460.00" arrivalLane="E1.200_1" arrivalPos="210.34" arrivalSpeed="13.40" duration="40.00" routeLength="428.59" waitingTime="0.00" waitingCount="0" stopTime="0.00" timeLoss="12.57" rerouteNo="0" devices="tripinfo_veh_28" vType="car" speedFactor="1.13" vaporized=""/>
    <tripinfo id="veh_30" depart="450.00" departLane="E1_0" departPos="4.60" departSpeed="0.00" departDelay="0.00" arrival="504.00" arrivalLane="E1.200_0" arrivalPos="210.34" arrivalSpeed="15.99" duration="54.00" routeLength="428.59" waitingTime="14.00" waitingCount="1" stopTime="0.00" timeLoss="27.08" rerouteNo="0" devices="tripinfo_veh_30" vType="car" speedFactor="1.18" vaporized=""/>
    <tripinfo id="veh_29" depart="435.00" departLane="E1_0" departPos="4.60" departSpeed="0.00" departDelay="0.00" arrival="507.00" arrivalLane="E1.200_0" arrivalPos="210.34" arrivalSpeed="12.64" duration="72.00" routeLength="428.59" waitingTime="29.00" waitingCount="1" stopTime="0.00" timeLoss="38.30" rerouteNo="0" devices="tripinfo_veh_29" vType="car" speedFactor="0.93" vaporized=""/>
    <tripinfo id="veh_31" depart="465.00" departLane="E1_0" departPos="4.60" departSpeed="0.00" departDelay="0.00" arrival="508.00" arrivalLane="E1.200_0" arrivalPos="210.34" arrivalSpeed="14.48" duration="43.00" routeLength="428.59" waitingTime="2.00" waitingCount="1" stopTime="0.00" timeLoss="16.22" rerouteNo="0" devices="tripinfo_veh_31" vType="car" speedFactor="1.15" vaporized=""/>
    <tripinfo id="veh_33" depart="495.00" departLane="E1_0" departPos="4.60" departSpeed="0.00" departDelay="0.00" arrival="546.00" arrivalLane="E1.200_1" arrivalPos="210.34" arrivalSpeed="15.77" duration="51.00" routeLength="428.59" waitingTime="12.00" waitingCount="1" stopTime="0.00" timeLoss="24.30" rerouteNo="0" devices="tripinfo_veh_33" vType="car" speedFactor="1.17" vaporized=""/>
    <tripinfo id="veh_32" depart="480.00" departLane="E1_0" departPos="4.60" departSpeed="0.00" departDelay="0.00" arrival="548.00" arrivalLane="E1.200_0" arrivalPos="210.34" arrivalSpeed="13.19" duration="68.00" routeLength="428.59" waitingTime="27.00" waitingCount="1" stopTime="0.00" timeLoss="36.66" rerouteNo="0" devices="tripinfo_veh_32" vType="car" speedFactor="1.01" vaporized=""/>
    <tripinfo id="veh_34" depart="510.00" departLane="E1_0" departPos="4.60" departSpeed="0.00" departDelay="0.00" arrival="550.00" arrivalLane="E1.200_0" arrivalPos="210.34" arrivalSpeed="13.44" duration="40.00" routeLength="428.59" waitingTime="0.00" waitingCount="0" stopTime="0.00" timeLoss="8.49" rerouteNo="0" devices="tripinfo_veh_34" vType="car" speedFactor="0.99" vaporized=""/>
    <tripinfo id="veh_36" depart="540.00" departLane="E1_0" departPos="2.30" departSpeed="0.00" departDelay="0.00" arrival="595.00" arrivalLane="E1.200_0" arrivalPos="210.34" arrivalSpeed="12.62" duration="55.00" routeLength="430.89" waitingTime="15.00" waitingCount="1" stopTime="0.00" timeLoss="22.59" rerouteNo="0" devices="tripinfo_veh_36" vType="motorcycle" speedFactor="0.97" vaporized=""/>
    <tripinfo id="veh_37" depart="555.00" departLane="E1_0" departPos="4.60" departSpeed="0.00" departDelay="0.00" arrival="595.00" arrivalLane="E1.200_1" arrivalPos="210.34" arrivalSpeed="15.37" duration="40.00" routeLength="428.59" waitingTime="1.00" waitingCount="1" stopTime="0.00" timeLoss="13.52" rerouteNo="0" devices="tripinfo_veh_37" vType="car" speedFactor="1.18" vaporized=""/>
    <tripinfo id="veh_35" depart="525.00" departLane="E1_0" departPos="4.60" departSpeed="0.00" departDelay="0.00" arrival="596.00" arrivalLane="E1.200_0" arrivalPos="210.34" arrivalSpeed="13.63" duration="71.00" routeLength="428.59" waitingTime="31.00" waitingCount="1" stopTime="0.00" timeLoss="40.71" rerouteNo="0" devices="tripinfo_veh_35" vType="car" speedFactor="1.02" vaporized=""/>
    <tripinfo id="veh_38" depart="570.00" departLane="E1_0" departPos="2.30" departSpeed="0.00" departDelay="0.00" arrival="635.00" arrivalLane="E1.200_0" arrivalPos="210.34" arrivalSpeed="14.90" duration="65.00" routeLength="430.89" waitingTime="29.00" waitingCount="1" stopTime="0.00" timeLoss="36.72" rerouteNo="0" devices="tripinfo_veh_38" vType="motorcycle" speedFactor="1.10" vaporized=""/>
    <tripinfo id="veh_40" depart="600.00" departLane="E1_0" departPos="2.30" departSpeed="0.00" departDelay="0.00" arrival="638.00" arrivalLane="E1.200_0" arrivalPos="210.34" arrivalSpeed="13.77" duration="38.00" routeLength="430.89" waitingTime="0.00" waitingCount="0" stopTime="0.00" timeLoss="7.06" rerouteNo="0" devices="tripinfo_veh_40" vType="motorcycle" speedFactor="1.03" vaporized=""/>
    <tripinfo id="veh_39" depart="585.00" departLane="E1_0" departPos="4.60" departSpeed="0.00" departDelay="0.00" arrival="640.00" arrivalLane="E1.200_0" arrivalPos="210.34" arrivalSpeed="12.07" duration="55.00" routeLength="428.59" waitingTime="10.00" waitingCount="1" stopTime="0.00" timeLoss="20.28" rerouteNo="0" devices="tripinfo_veh_39" vType="car" speedFactor="0.90" vaporized=""/>
    <tripinfo id="veh_42" depart="630.00" departLane="E1_0" departPos="4.60" departSpeed="0.00" departDelay="0.00" arrival="685.00" arrivalLane="E1.200_0" arrivalPos="210.34" arrivalSpeed="15.15" duration="55.00" routeLength="428.59" waitingTime="15.00" waitingCount="1" stopTime="0.00" timeLoss="26.46" rerouteNo="0" devices="tripinfo_veh_42" vType="car" speedFactor="1.09" vaporized=""/>
    <tripinfo id="veh_41" depart="615.00" departLane="E1_0" departPos="4.60" departSpeed="0.00" departDelay="0.00" arrival="687.00" arrivalLane="E1.200_0" arrivalPos="210.34" arrivalSpeed="12.05" duration="72.00" routeLength="428.59" waitingTime="28.00" waitingCount="1" stopTime="0.00" timeLoss="39.45" rerouteNo="0" devices="tripinfo_veh_41" vType="car" speedFactor="0.96" vaporized=""/>
    <tripinfo id="veh_43" depart="645.00" departLane="E1_0" departPos="4.60" departSpeed="0.00" departDelay="0.00" arrival="689.00" arrivalLane="E1.200_0" arrivalPos="210.34" arrivalSpeed="13.91" duration="44.00" routeLength="428.59" waitingTime="3.00" waitingCount="1" stopTime="0.00" timeLoss="13.43" rerouteNo="0" devices="tripinfo_veh_43" vType="car" speedFactor="1.04" vaporized=""/>
    <tripinfo id="veh_44" depart="660.00" departLane="E1_0" departPos="4.60" departSpeed="0.00" departDelay="0.00" arrival="727.00" arrivalLane="E1.200_0" arrivalPos="210.34" arrivalSpeed="14.41" duration="67.00" routeLength="428.59" waitingTime="27.00" waitingCount="1" stopTime="0.00" timeLoss="37.24" rerouteNo="0" devices="tripinfo_veh_44" vType="car" speedFactor="1.04" vaporized=""/>
    <tripinfo id="veh_45" depart="675.00" departLane="E1_0" departPos="4.60" departSpeed="0.00" departDelay="0.00" arrival="727.00" arrivalLane="E1.200_1" arrivalPos="210.34" arrivalSpeed="13.98" duration="52.00" routeLength="428.59" waitingTime="12.00" waitingCount="1" stopTime="0.00" timeLoss="23.59" rerouteNo="0" devices="tripinfo_veh_45" vType="car" speedFactor="1.09" vaporized=""/>
    <tripinfo id="veh_46" depart="690.00" departLane="E1_0" departPos="2.30" departSpeed="0.00" departDelay="0.00" arrival="730.00" arrivalLane="E1.200_0" arrivalPos="210.34" arrivalSpeed="13.17" duration="40.00" routeLength="430.89" waitingTime="0.00" waitingCount="0" stopTime="0.00" timeLoss="7.97" rerouteNo="0" devices="tripinfo_veh_46" vType="motorcycle" speedFactor="1.00" vaporized=""/>
    <tripinfo id="veh_48" depart="720.00" departLane="E1_0" departPos="4.60" departSpeed="0.00" departDelay="0.00" arrival="778.00" arrivalLane="E1.200_1" arrivalPos="210.34" arrivalSpeed="11.66" duration="58.00" routeLength="428.59" waitingTime="12.00" waitingCount="1" stopTime="0.00" timeLoss="22.53" rerouteNo="0" devices="tripinfo_veh_48" vType="car" speedFactor="0.88" vaporized=""/>
    <tripinfo id="veh_47" depart="705.00" departLane="E1_0" departPos="4.60" departSpeed="0.00" departDelay="0.00" arrival="779.00" arrivalLane="E1.200_0" arrivalPos="210.34" arrivalSpeed="12.18" duration="74.00" routeLength="428.59" waitingTime="29.00" waitingCount="1" stopTime="0.00" timeLoss="38.87" rerouteNo="0" devices="tripinfo_veh_47" vType="car" speedFactor="0.90" vaporized=""/>
    <tripinfo id="veh_49" depart="735.00" departLane="E1_0" departPos="4.60" departSpeed="0.00" departDelay="0.00" arrival="781.00" arrivalLane="E1.200_0" arrivalPos="210.34" arrivalSpeed="10.76" duration="46.00" routeLength="428.59" waitingTime="0.00" waitingCount="0" stopTime="0.00" timeLoss="9.33" rerouteNo="0" devices="tripinfo_veh_49" vType="car" speedFactor="0.85" vaporized=""/>
    <tripinfo id="veh_51" depart="765.00" departLane="E1_0" departPos="2.30" departSpeed="0.00" departDelay="0.00" arrival="815.00" arrivalLane="E1.200_0" arrivalPos="210.34" arrivalSpeed="15.82" duration="50.00" routeLength="430.89" waitingTime="15.00" waitingCount="1" stopTime="0.00" timeLoss="22.58" rerouteNo="0" devices="tripinfo_veh_51" vType="motorcycle" speedFactor="1.17" vaporized=""/>
    <tripinfo id="veh_52" depart="780.00" departLane="E1_0" departPos="2.30" departSpeed="0.00" departDelay="0.00" arrival="818.00" arrivalLane="E1.200_1" arrivalPos="210.34" arrivalSpeed="13.20" duration="38.00" routeLength="430.89" waitingTime="0.00" waitingCount="0" stopTime="0.00" timeLoss="7.14" rerouteNo="0" devices="tripinfo_veh_52" vType="motorcycle" speedFactor="1.02" vaporized=""/>
    <tripinfo id="veh_50" depart="750.00" departLane="E1_0" departPos="4.60" departSpeed="0.00" departDelay="0.00" arrival="821.00" arrivalLane="E1.200_0" arrivalPos="210.34" arrivalSpeed="11.07" duration="71.00" routeLength="428.59" waitingTime="25.00" waitingCount="1" stopTime="0.00" timeLoss="34.68" rerouteNo="0" devices="tripinfo_veh_50" vType="car" speedFactor="0.85" vaporized=""/>
    <tripinfo id="veh_53" depart="795.00" departLane="E1_0" departPos="4.60" departSpeed="0.00" departDelay="0.00" arrival="865.00" arrivalLane="E1.200_1" arrivalPos="210.34" arrivalSpeed="14.09" duration="70.00" routeLength="428.59" waitingTime="30.00" waitingCount="1" stopTime="0.00" timeLoss="41.25" rerouteNo="0" devices="tripinfo_veh_53" vType="car" speedFactor="1.10" vaporized=""/>
    <tripinfo id="veh_54" depart="810.00" departLane="E1_0" departPos="2.30" departSpeed="0.00" departDelay="0.00" arrival="865.00" arrivalLane="E1.200_0" arrivalPos="210.34" arrivalSpeed="13.50" duration="55.00" routeLength="430.89" waitingTime="16.00" waitingCount="1" stopTime="0.00" timeLoss="23.13" rerouteNo="0" devices="tripinfo_veh_54" vType="motorcycle" speedFactor="1.00" vaporized=""/>
    <tripinfo id="veh_55" depart="825.00" departLane="E1_0" departPos="4.60" departSpeed="0.00" departDelay="0.00" arrival="868.00" arrivalLane="E1.200_1" arrivalPos="210.34" arrivalSpeed="13.55" duration="43.00" routeLength="428.59" waitingTime="1.00" waitingCount="1" stopTime="0.00" timeLoss="11.34" rerouteNo="0" devices="tripinfo_veh_55" vType="car" speedFactor="1.00" vaporized=""/>
    <tripinfo id="veh_57" depart="855.00" departLane="E1_0" departPos="4.60" departSpeed="0.00" departDelay="0.00" arrival="906.00" arrivalLane="E1.200_1" arrivalPos="210.34" arrivalSpeed="14.84" duration="51.00" routeLength="428.59" waitingTime="12.00" waitingCount="1" stopTime="0.00" timeLoss="23.80" rerouteNo="0" devices="tripinfo_veh_57" vType="car" speedFactor="1.14" vaporized=""/>
    <tripinfo id="veh_56" depart="840.00" departLane="E1_0" departPos="2.30" departSpeed="0.00" departDelay="0.00" arrival="908.00" arrivalLane="E1.200_0" arrivalPos="210.34" arrivalSpeed="11.72" duration="68.00" routeLength="430.89" waitingTime="27.00" waitingCount="1" stopTime="0.00" timeLoss="33.41" rerouteNo="0" devices="tripinfo_veh_56" vType="motorcycle" speedFactor="0.90" vaporized=""/>
    <tripinfo id="veh_58" depart="870.00" departLane="E1_0" departPos="4.60" departSpeed="0.00" departDelay="0.00" arrival="910.00" arrivalLane="E1.200_0" arrivalPos="210.34" arrivalSpeed="13.50" duration="40.00" routeLength="428.59" waitingTime="0.00" waitingCount="0" stopTime="0.00" timeLoss="9.27" rerouteNo="0" devices="tripinfo_veh_58" vType="car" speedFactor="1.02" vaporized=""/>
    <tripinfo id="veh_59" depart="885.00" departLane="E1_0" departPos="2.30" departSpeed="0.00" departDelay="0.00" arrival="955.00" arrivalLane="E1.200_0" arrivalPos="210.34" arrivalSpeed="12.97" duration="70.00" routeLength="430.89" waitingTime="32.00" waitingCount="1" stopTime="0.00" timeLoss="37.69" rerouteNo="0" devices="tripinfo_veh_59" vType="motorcycle" speedFactor="0.97" vaporized=""/>
    <tripinfo id="veh_60" depart="900.00" departLane="E1_0" departPos="4.60" departSpeed="0.00" departDelay="0.00" arrival="955.00" arrivalLane="E1.200_1" arrivalPos="210.34" arrivalSpeed="14.54" duration="55.00" routeLength="428.59" waitingTime="16.00" waitingCount="1" stopTime="0.00" timeLoss="25.55" rerouteNo="0" devices="tripinfo_veh_60" vType="car" speedFactor="1.08" vaporized=""/>
    <tripinfo id="veh_61" depart="915.00" departLane="E1_0" departPos="4.60" departSpeed="0.00" departDelay="0.00" arrival="957.00" arrivalLane="E1.200_0" arrivalPos="210.34" arrivalSpeed="14.58" duration="42.00" routeLength="428.59" waitingTime="1.00" waitingCount="1" stopTime="0.00" timeLoss="13.64" rerouteNo="0" devices="tripinfo_veh_61" vType="car" speedFactor="1.12" vaporized=""/>
    <tripinfo id="veh_62" depart="930.00" departLane="E1_0" departPos="4.60" departSpeed="0.00" departDelay="0.00" arrival="998.00" arrivalLane="E1.200_0" arrivalPos="210.34" arrivalSpeed="13.02" duration="68.00" routeLength="428.59" waitingTime="28.00" waitingCount="1" stopTime="0.00" timeLoss="36.74" rerouteNo="0" devices="tripinfo_veh_62" vType="car" speedFactor="1.02" vaporized=""/>
    <tripinfo id="veh_63" depart="945.00" departLane="E1_0" departPos="4.60" departSpeed="0.00" departDelay="0.00" arrival="999.00" arrivalLane="E1.200_1" arrivalPos="210.34" arrivalSpeed="13.02" duration="54.00" routeLength="428.59" waitingTime="11.00" waitingCount="1" stopTime="0.00" timeLoss="22.43" rerouteNo="0" devices="tripinfo_veh_63" vType="car" speedFactor="0.99" vaporized=""/>
    <tripinfo id="veh_64" depart="960.00" departLane="E1_0" departPos="2.30" departSpeed="0.00" departDelay="0.00" arrival="1000.00" arrivalLane="E1.200_0" arrivalPos="210.34" arrivalSpeed="12.58" duration="40.00" routeLength="430.89" waitingTime="0.00" waitingCount="0" stopTime="0.00" timeLoss="6.64" rerouteNo="0" devices="tripinfo_veh_64" vType="motorcycle" speedFactor="0.94" vaporized=""/>
    <tripinfo id="veh_66" depart="990.00" departLane="E1_0" departPos="2.30" departSpeed="0.00" departDelay="0.00" arrival="1046.00" arrivalLane="E1.200_0" arrivalPos="210.34" arrivalSpeed="12.21" duration="56.00" routeLength="430.89" waitingTime="15.00" waitingCount="1" stopTime="0.00" timeLoss="21.70" rerouteNo="0" devices="tripinfo_veh_66" vType="motorcycle" speedFactor="0.91" vaporized=""/>
    <tripinfo id="veh_67" depart="1005.00" departLane="E1_0" departPos="4.60" departSpeed="0.00" departDelay="0.00" arrival="1048.00" arrivalLane="E1.200_1" arrivalPos="210.34" arrivalSpeed="11.80" duration="43.00" routeLength="428.59" waitingTime="0.00" waitingCount="0" stopTime="0.00" timeLoss="9.15" rerouteNo="0" devices="tripinfo_veh_67" vType="car" speedFactor="0.91" vaporized=""/>
    <tripinfo id="veh_65" depart="975.00" departLane="E1_0" departPos="4.60" departSpeed="0.00" departDelay="0.00" arrival="1049.00" arrivalLane="E1.200_0" arrivalPos="210.34" arrivalSpeed="12.11" duration="74.00" routeLength="428.59" waitingTime="29.00" waitingCount="1" stopTime="0.00" timeLoss="38.13" rerouteNo="0" devices="tripinfo_veh_65" vType="car" speedFactor="0.88" vaporized=""/>
    <tripinfo id="veh_68" depart="1020.00" departLane="E1_0" departPos="2.30" departSpeed="0.00" departDelay="0.00" arrival="1086.00" arrivalLane="E1.200_0" arrivalPos="210.34" arrivalSpeed="13.42" duration="66.00" routeLength="430.89" waitingTime="28.00" waitingCount="1" stopTime="0.00" timeLoss="35.63" rerouteNo="0" devices="tripinfo_veh_68" vType="motorcycle" speedFactor="1.04" vaporized=""/>
    <tripinfo id="veh_69" depart="1035.00" departLane="E1_0" departPos="4.60" departSpeed="0.00" departDelay="0.00" arrival="1087.00" arrivalLane="E1.200_1" arrivalPos="210.34" arrivalSpeed="13.11" duration="52.00" routeLength="428.59" waitingTime="12.00" waitingCount="1" stopTime="0.00" timeLoss="21.68" rerouteNo="0" devices="tripinfo_veh_69" vType="car" speedFactor="1.02" vaporized=""/>
    <tripinfo id="veh_70" depart="1050.00" departLane="E1_0" departPos="4.60" departSpeed="0.00" departDelay="0.00" arrival="1088.00" arrivalLane="E1.200_0" arrivalPos="210.34" arrivalSpeed="13.73" duration="38.00" routeLength="428.59" waitingTime="0.00" waitingCount="0" stopTime="0.00" timeLoss="7.75" rerouteNo="0" devices="tripinfo_veh_70" vType="car" speedFactor="1.02" vaporized=""/>
    <tripinfo id="veh_72" depart="1080.00" departLane="E1_0" departPos="2.30" departSpeed="0.00" departDelay="0.00" arrival="1135.00" arrivalLane="E1.200_1" arrivalPos="210.34" arrivalSpeed="12.56" duration="55.00" routeLength="430.89" waitingTime="15.00" waitingCount="1" stopTime="0.00" timeLoss="21.95" rerouteNo="0" devices="tripinfo_veh_72" vType="motorcycle" speedFactor="0.94" vaporized=""/>
    <tripinfo id="veh_71" depart="1065.00" departLane="E1_0" departPos="4.60" departSpeed="0.00" departDelay="0.00" arrival="1136.00" arrivalLane="E1.200_0" arrivalPos="210.34" arrivalSpeed="12.41" duration="71.00" routeLength="428.59" waitingTime="28.00" waitingCount="1" stopTime="0.00" timeLoss="39.05" rerouteNo="0" devices="tripinfo_veh_71" vType="car" speedFactor="0.97" vaporized=""/>