<?xml version="1.0" encoding="UTF-8"?>

<!-- generated on 2025-10-07 22:05:13 by Eclipse SUMO sumo Version 1.24.0
<sumoConfiguration xmlns:xsi="http://www.w3.org/2001/XMLSchema-instance" xsi:noNamespaceSchemaLocation="http://sumo.dlr.de/xsd/sumoConfiguration.xsd">

    <input>
        <net-file value="continuous_flow_results/../demo.net.xml"/>
        <route-files value="continuous_flow_results/continuous_flow_baseline.rou.xml"/>
    </input>

    <output>
        <tripinfo-output value="continuous_flow_results/tripinfo_baseline.xml"/>
    </output>

    <time>
        <begin value="0"/>
        <end value="3600"/>
        <step-length value="1"/>
    </time>

    <processing>
        <time-to-teleport value="300"/>
    </processing>

    <report>
        <no-warnings value="true"/>
        <no-step-log value="true"/>
    </report>

    <traci_server>
        <remote-port value="55236"/>
    </traci_server>

</sumoConfiguration>
-->

<tripinfos xmlns:xsi="http://www.w3.org/2001/XMLSchema-instance" xsi:noNamespaceSchemaLocation="http://sumo.dlr.de/xsd/tripinfo_file.xsd">
    <tripinfo id="veh_0" depart="0.00" departLane="E1_0" departPos="4.60" departSpeed="0.00" departDelay="0.00" arrival="55.00" arrivalLane="E1.200_0" arrivalPos="210.34" arrivalSpeed="13.63" duration="55.00" routeLength="428.59" waitingTime="15.00" waitingCount="1" stopTime="0.00" timeLoss="25.70" rerouteNo="0" devices="tripinfo_veh_0" vType="car" speedFactor="1.06" vaporized=""/>
    <tripinfo id="veh_1" depart="15.00" departLane="E1_0" departPos="2.30" departSpeed="0.00" departDelay="0.00" arrival="56.00" arrivalLane="E1.200_1" arrivalPos="210.34" arrivalSpeed="12.10" duration="41.00" routeLength="430.89" waitingTime="0.00" waitingCount="0" stopTime="0.00" timeLoss="7.07" rerouteNo="0" devices="tripinfo_veh_1" vType="motorcycle" speedFactor="0.94" vaporized=""/>
    <tripinfo id="veh_2" depart="30.00" departLane="E1_0" departPos="2.30" departSpeed="0.00" departDelay="0.00" arrival="96.00" arrivalLane="E1.200_0" arrivalPos="210.34" arrivalSpeed="13.82" duration="66.00" routeLength="430.89" waitingTime="29.00" waitingCount="1" stopTime="0.00" timeLoss="35.20" rerouteNo="0" devices="tripinfo_veh_2" vType="motorcycle" speedFactor="1.01" vaporized=""/>
    <tripinfo id="veh_3" depart="45.00" departLane="E1_0" departPos="4.60" departSpeed="0.00" departDelay="0.00" arrival="97.00" arrivalLane="E1.200_1" arrivalPos="210.34" arrivalSpeed="14.72" duration="52.00" routeLength="428.59" waitingTime="12.00" waitingCount="1" stopTime="0.00" timeLoss="23.28" rerouteNo="0" devices="tripinfo_veh_3" vType="car" speedFactor="1.08" vaporized=""/>
    <tripinfo id="veh_4" depart="60.00" departLane="E1_0" departPos="4.60" departSpeed="0.00" departDelay="0.00" arrival="98.00" arrivalLane="E1.200_0" arrivalPos="210.34" arrivalSpeed="13.39" duration="38.00" routeLength="428.59" waitingTime="0.00" waitingCount="0" stopTime="0.00" timeLoss="8.01" rerouteNo="0" devices="tripinfo_veh_4" vType="car" speedFactor="1.03" vaporized=""/>
    <tripinfo id="veh_6" depart="90.00" departLane="E1_0" departPos="2.30" departSpeed="0.00" departDelay="0.00" arrival="144.00" arrivalLane="E1.200_0" arrivalPos="210.34" arrivalSpeed="14.36" duration="54.00" routeLength="430.89" waitingTime="16.00" waitingCount="1" stopTime="0.00" timeLoss="23.57" rerouteNo="0" devices="tripinfo_veh_6" vType="motorcycle" speedFactor="1.05" vaporized=""/>
    <tripinfo id="veh_7" depart="105.00" departLane="E1_0" departPos="4.60" departSpeed="0.00" departDelay="0.00" arrival="149.00" arrivalLane="E1.200_1" arrivalPos="210.34" arrivalSpeed="11.31" duration="44.00" routeLength="428.59" waitingTime="0.00" waitingCount="0" stopTime="0.00" timeLoss="8.56" rerouteNo="0" devices="tripinfo_veh_7" vType="car" speedFactor="0.89" vaporized=""/>
    <tripinfo id="veh_5" depart="75.00" departLane="E1_0" departPos="4.60" departSpeed="0.00" departDelay="0.00" arrival="150.00" arrivalLane="E1.200_0" arrivalPos="210.34" arrivalSpeed="10.75" duration="75.00" routeLength="428.59" waitingTime="27.00" waitingCount="1" stopTime="0.00" timeLoss="36.95" rerouteNo="0" devices="tripinfo_veh_5" vType="car" speedFactor="0.83" vaporized=""/>
    <tripinfo id="veh_8" depart="120.00" departLane="E1_0" departPos="4.60" departSpeed="0.00" departDelay="0.00" arrival="189.00" arrivalLane="E1.200_0" arrivalPos="210.34" arrivalSpeed="12.79" duration="69.00" routeLength="428.59" waitingTime="27.00" waitingCount="1" stopTime="0.00" timeLoss="35.64" rerouteNo="0" devices="tripinfo_veh_8" vType="car" speedFactor="0.94" vaporized=""/>
    <tripinfo id="veh_9" depart="135.00" departLane="E1_0" departPos="4.60" departSpeed="0.00" departDelay="0.00" arrival="191.00" arrivalLane="E1.200_1" arrivalPos="210.34" arrivalSpeed="11.12" duration="56.00" routeLength="428.59" waitingTime="10.00" waitingCount="1" stopTime="0.00" timeLoss="19.12" rerouteNo="0" devices="tripinfo_veh_9" vType="car" speedFactor="0.86" vaporized=""/>
    <tripinfo id="veh_10" depart="150.00" departLane="E1_0" departPos="4.60" departSpeed="0.00" departDelay="0.00" arrival="191.00" arrivalLane="E1.200_0" arrivalPos="210.34" arrivalSpeed="14.74" duration="41.00" routeLength="428.59" waitingTime="0.00" waitingCount="0" stopTime="0.00" timeLoss="11.78" rerouteNo="0" devices="tripinfo_veh_10" vType="car" speedFactor="1.09" vaporized=""/>
    <tripinfo id="veh_12" depart="180.00" departLane="E1_0" departPos="4.60" departSpeed="0.00" departDelay="0.00" arrival="235.00" arrivalLane="E1.200_1" arrivalPos="210.34" arrivalSpeed="13.34" duration="55.00" routeLength="428.59" waitingTime="15.00" waitingCount="1" stopTime="0.00" timeLoss="25.26" rerouteNo="0" devices="tripinfo_veh_12" vType="car" speedFactor="1.05" vaporized=""/>
    <tripinfo id="veh_11" depart="165.00" departLane="E1_0" departPos="4.60" departSpeed="0.00" departDelay="0.00" arrival="236.00" arrivalLane="E1.200_0" arrivalPos="210.34" arrivalSpeed="14.18" duration="71.00" routeLength="428.59" waitingTime="29.00" waitingCount="1" stopTime="0.00" timeLoss="40.35" rerouteNo="0" devices="tripinfo_veh_11" vType="car" speedFactor="1.03" vaporized=""/>
    <tripinfo id="veh_13" depart="195.00" departLane="E1_0" departPos="4.60" departSpeed="0.00" departDelay="0.00" arrival="237.00" arrivalLane="E1.200_0" arrivalPos="210.34" arrivalSpeed="15.47" duration="42.00" routeLength="428.59" waitingTime="4.00" waitingCount="1" stopTime="0.00" timeLoss="14.46" rerouteNo="0" devices="tripinfo_veh_13" vType="car" speedFactor="1.12" vaporized=""/>
    <tripinfo id="veh_14" depart="210.00" departLane="E1_0" departPos="4.60" departSpeed="0.00" departDelay="0.00" arrival="278.00" arrivalLane="E1.200_0" arrivalPos="210.34" arrivalSpeed="12.58" duration="68.00" routeLength="428.59" waitingTime="25.00" waitingCount="1" stopTime="0.00" timeLoss="36.77" rerouteNo="0" devices="tripinfo_veh_14" vType="car" speedFactor="0.99" vaporized=""/>
    <tripinfo id="veh_15" depart="225.00" departLane="E1_0" departPos="4.60" departSpeed="0.00" departDelay="0.00" arrival="279.00" arrivalLane="E1.200_0" arrivalPos="210.34" arrivalSpeed="11.88" duration="54.00" routeLength="428.59" waitingTime="10.00" waitingCount="1" stopTime="0.00" timeLoss="20.34" rerouteNo="0" devices="tripinfo_veh_15" vType="car" speedFactor="0.93" vaporized=""/>
    <tripinfo id="veh_16" depart="240.00" departLane="E1_0" departPos="4.60" departSpeed="0.00" departDelay="0.00" arrival="282.00" arrivalLane="E1.200_1" arrivalPos="210.34" arrivalSpeed="11.17" duration="42.00" routeLength="428.59" waitingTime="0.00" waitingCount="0" stopTime="0.00" timeLoss="6.20" rerouteNo="0" devices="tripinfo_veh_16" vType="car" speedFactor="0.88" vaporized=""/>
    <tripinfo id="veh_17" depart="255.00" departLane="E1_0" departPos="2.30" departSpeed="0.00" departDelay="0.00" arrival="326.00" arrivalLane="E1.200_0" arrivalPos="210.34" arrivalSpeed="12.89" duration="71.00" routeLength="430.89" waitingTime="30.00" waitingCount="1" stopTime="0.00" timeLoss="37.34" rerouteNo="0" devices="tripinfo_veh_17" vType="motorcycle" speedFactor="0.94" vaporized=""/>
    <tripinfo id="veh_18" depart="270.00" departLane="E1_0" departPos="2.30" departSpeed="0.00" departDelay="0.00" arrival="326.00" arrivalLane="E1.200_1" arrivalPos="210.34" arrivalSpeed="12.48" duration="56.00" routeLength="430.89" waitingTime="16.00" waitingCount="1" stopTime="0.00" timeLoss="22.20" rerouteNo="0" devices="tripinfo_veh_18" vType="motorcycle" speedFactor="0.94" vaporized=""/>
    <tripinfo id="veh_19" depart="285.00" departLane="E1_0" departPos="4.60" departSpeed="0.00" departDelay="0.00" arrival="327.00" arrivalLane="E1.200_0" arrivalPos="210.34" arrivalSpeed="15.59" duration="42.00" routeLength="428.59" waitingTime="0.00" waitingCount="0" stopTime="0.00" timeLoss="15.12" rerouteNo="0" devices="tripinfo_veh_19" vType="car" speedFactor="1.16" vaporized=""/>
    <tripinfo id="veh_20" depart="300.00" departLane="E1_0" departPos="4.60" departSpeed="0.00" departDelay="0.00" arrival="368.00" arrivalLane="E1.200_0" arrivalPos="210.34" arrivalSpeed="13.30" duration="68.00" routeLength="428.59" waitingTime="27.00" waitingCount="1" stopTime="0.00" timeLoss="37.46" rerouteNo="0" devices="tripinfo_veh_20" vType="car" speedFactor="1.02" vaporized=""/>
    <tripinfo id="veh_21" depart="315.00" departLane="E1_0" departPos="4.60" departSpeed="0.00" departDelay="0.00" arrival="368.00" arrivalLane="E1.200_1" arrivalPos="210.34" arrivalSpeed="13.02" duration="53.00" routeLength="428.59" waitingTime="13.00" waitingCount="1" stopTime="0.00" timeLoss="21.73" rerouteNo="0" devices="tripinfo_veh_21" vType="car" speedFactor="1.01" vaporized=""/>
    <tripinfo id="veh_22" depart="330.00" departLane="E1_0" departPos="4.60" departSpeed="0.00" departDelay="0.00" arrival="370.00" arrivalLane="E1.200_1" arrivalPos="210.34" arrivalSpeed="12.86" duration="40.00" routeLength="428.59" waitingTime="0.00" waitingCount="0" stopTime="0.00" timeLoss="8.01" rerouteNo="0" devices="tripinfo_veh_22" vType="car" speedFactor="0.97" vaporized=""/>
    <tripinfo id="veh_23" depart="345.00" departLane="E1_0" departPos="2.30" departSpeed="0.00" departDelay="0.00" arrival="417.00" arrivalLane="E1.200_0" arrivalPos="210.34" arrivalSpeed="11.67" duration="72.00" routeLength="430.89" waitingTime="30.00" waitingCount="1" stopTime="0.00" timeLoss="36.34" rerouteNo="0" devices="tripinfo_veh_23" vType="motorcycle" speedFactor="0.89" vaporized=""/>
    <tripinfo id="veh_24" depart="360.00" departLane="E1_0" departPos="4.60" departSpeed="0.00" departDelay="0.00" arrival="419.00" arrivalLane="E1.200_1" arrivalPos="210.34" arrivalSpeed="10.74" duration="59.00" routeLength="428.59" waitingTime="11.00" waitingCount="1" stopTime="0.00" timeLoss="21.04" rerouteNo="0" devices="tripinfo_veh_24" vType="car" speedFactor="0.83" vaporized=""/>
    <tripinfo id="veh_25" depart="375.00" departLane="E1_0" departPos="4.60" departSpeed="0.00" departDelay="0.00" arrival="420.00" arrivalLane="E1.200_0" arrivalPos="210.34" arrivalSpeed="11.05" duration="45.00" routeLength="428.59" waitingTime="0.00" waitingCount="0" stopTime="0.00" timeLoss="8.86" rerouteNo="0" devices="tripinfo_veh_25" vType="car" speedFactor="0.87" vaporized=""/>
    <tripinfo id="veh_26" depart="390.00" departLane="E1_0" departPos="4.60" departSpeed="0.00" departDelay="0.00" arrival="459.00" arrivalLane="E1.200_0" arrivalPos="210.34" arrivalSpeed="12.51" duration="69.00" routeLength="428.59" waitingTime="26.00" waitingCount="1" stopTime="0.00" timeLoss="35.32" rerouteNo="0" devices="tripinfo_veh_26" vType="car" speedFactor="0.92" vaporized=""/>
    <tripinfo id="veh_27" depart="405.00" departLane="E1_0" departPos="4.60" departSpeed="0.00" departDelay="0.00" arrival="459.00" arrivalLane="E1.200_1" arrivalPos="210.34" arrivalSpeed="12.09" duration="54.00" routeLength="428.59" waitingTime="10.00" waitingCount="1" stopTime="0.00" timeLoss="20.71" rerouteNo="0" devices="tripinfo_veh_27" vType="car" speedFactor="0.95" vaporized=""/>
    <tripinfo id="veh_28" depart="420.00" departLane="E1_0" departPos="4.60" departSpeed="0.00" departDelay="0.00" arrival="461.00" arrivalLane="E1.200_0" arrivalPos="210.34" arrivalSpeed="15.46" duration="41.00" routeLength="428.59" waitingTime="0.00" waitingCount="0" stopTime="0.00" timeLoss="13.19" rerouteNo="0" devices="tripinfo_veh_28" vType="car" speedFactor="1.13" vaporized=""/>
    <tripinfo id="veh_30" depart="450.00" departLane="E1_0" departPos="2.30" departSpeed="0.00" departDelay="0.00" arrival="502.00" arrivalLane="E1.200_0" arrivalPos="210.34" arrivalSpeed="16.22" duration="52.00" routeLength="430.89" waitingTime="18.00" waitingCount="1" stopTime="0.00" timeLoss="25.40" rerouteNo="0" devices="tripinfo_veh_30" vType="motorcycle" speedFactor="1.18" vaporized=""/>
    <tripinfo id="veh_31" depart="465.00" departLane="E1_0" departPos="4.60" departSpeed="0.00" departDelay="0.00" arrival="505.00" arrivalLane="E1.200_1" arrivalPos="210.34" arrivalSpeed="15.42" duration="40.00" routeLength="428.59" waitingTime="3.00" waitingCount="1" stopTime="0.00" timeLoss="12.97" rerouteNo="0" devices="tripinfo_veh_31" vType="car" speedFactor="1.15" vaporized=""/>
    <tripinfo id="veh_29" depart="435.00" departLane="E1_0" departPos="4.60" departSpeed="0.00" departDelay="0.00" arrival="507.00" arrivalLane="E1.200_0" arrivalPos="210.34" arrivalSpeed="12.04" duration="72.00" routeLength="428.59" waitingTime="29.00" waitingCount="1" stopTime="0.00" timeLoss="38.49" rerouteNo="0" devices="tripinfo_veh_29" vType="car" speedFactor="0.93" vaporized=""/>
    <tripinfo id="veh_33" depart="495.00" departLane="E1_0" departPos="4.60" departSpeed="0.00" departDelay="0.00" arrival="546.00" arrivalLane="E1.200_0" arrivalPos="210.34" arrivalSpeed="15.13" duration="51.00" routeLength="428.59" waitingTime="12.00" waitingCount="1" stopTime="0.00" timeLoss="24.39" rerouteNo="0" devices="tripinfo_veh_33" vType="car" speedFactor="1.17" vaporized=""/>
    <tripinfo id="veh_32" depart="480.00" departLane="E1_0" departPos="4.60" departSpeed="0.00" departDelay="0.00" arrival="548.00" arrivalLane="E1.200_0" arrivalPos="210.34" arrivalSpeed="13.66" duration="68.00" routeLength="428.59" waitingTime="27.00" waitingCount="1" stopTime="0.00" timeLoss="37.03" rerouteNo="0" devices="tripinfo_veh_32" vType="car" speedFactor="1.01" vaporized=""/>
    <tripinfo id="veh_34" depart="510.00" departLane="E1_0" departPos="4.60" departSpeed="0.00" departDelay="0.00" arrival="550.00" arrivalLane="E1.200_0" arrivalPos="210.34" arrivalSpeed="13.81" duration="40.00" routeLength="428.59" waitingTime="0.00" waitingCount="0" stopTime="0.00" timeLoss="8.61" rerouteNo="0" devices="tripinfo_veh_34" vType="car" speedFactor="0.99" vaporized=""/>
    <tripinfo id="veh_35" depart="525.00" departLane="E1_0" departPos="4.60" departSpeed="0.00" departDelay="0.00" arrival="596.00" arrivalLane="E1.200_0" arrivalPos="210.34" arrivalSpeed="13.40" duration="71.00" routeLength="428.59" waitingTime="29.00" waitingCount="1" stopTime="0.00" timeLoss="40.17" rerouteNo="0" devices="tripinfo_veh_35" vType="car" speedFactor="1.02" vaporized=""/>
    <tripinfo id="veh_36" depart="540.00" departLane="E1_0" departPos="4.60" departSpeed="0.00" departDelay="0.00" arrival="597.00" arrivalLane="E1.200_1" arrivalPos="210.34" arrivalSpeed="13.04" duration="57.00" routeLength="428.59" waitingTime="15.00" waitingCount="1" stopTime="0.00" timeLoss="24.36" rerouteNo="0" devices="tripinfo_veh_36" vType="car" speedFactor="0.97" vaporized=""/>
    <tripinfo id="veh_37" depart="555.00" departLane="E1_0" departPos="4.60" departSpeed="0.00" departDelay="0.00" arrival="597.00" arrivalLane="E1.200_0" arrivalPos="210.34" arrivalSpeed="15.45" duration="42.00" routeLength="428.59" waitingTime="3.00" waitingCount="1" stopTime="0.00" timeLoss="15.81" rerouteNo="0" devices="tripinfo_veh_37" vType="car" speedFactor="1.18" vaporized=""/>
    <tripinfo id="veh_38" depart="570.00" departLane="E1_0" departPos="4.60" departSpeed="0.00" departDelay="0.00" arrival="636.00" arrivalLane="E1.200_0" arrivalPos="210.34" arrivalSpeed="14.36" duration="66.00" routeLength="428.59" waitingTime="27.00" waitingCount="1" stopTime="0.00" timeLoss="37.98" rerouteNo="0" devices="tripinfo_veh_38" vType="car" speedFactor="1.10" vaporized=""/>
    <tripinfo id="veh_39" depart="585.00" departLane="E1_0" departPos="4.60" departSpeed="0.00" departDelay="0.00" arrival="640.00" arrivalLane="E1.200_1" arrivalPos="210.34" arrivalSpeed="11.50" duration="55.00" routeLength="428.59" waitingTime="11.00" waitingCount="1" stopTime="0.00" timeLoss="20.40" rerouteNo="0" devices="tripinfo_veh_39" vType="car" speedFactor="0.90" vaporized=""/>
    <tripinfo id="veh_141" depart="600.00" departLane="E1_0" departPos="4.60" departSpeed="0.00" departDelay="0.00" arrival="640.00" arrivalLane="E1.200_0" arrivalPos="210.34" arrivalSpeed="12.32" duration="40.00" routeLength="428.59" waitingTime="0.00" waitingCount="0" stopTime="0.00" timeLoss="7.60" rerouteNo="0" devices="tripinfo_veh_141" vType="car" speedFactor="0.96" vaporized=""/>
    <tripinfo id="veh_142" depart="630.00" departLane="E1_0" departPos="4.60" departSpeed="0.00" departDelay="0.00" arrival="685.00" arrivalLane="E1.200_0" arrivalPos="210.34" arrivalSpeed="14.28" duration="55.00" routeLength="428.59" waitingTime="16.00" waitingCount="1" stopTime="0.00" timeLoss="26.00" rerouteNo="0" devices="tripinfo_veh_142" vType="car" speedFactor="1.09" vaporized=""/>
    <tripinfo id="veh_143" depart="660.00" departLane="E1_0" departPos="4.60" departSpeed="0.00" departDelay="0.00" arrival="728.00" arrivalLane="E1.200_0" arrivalPos="210.34" arrivalSpeed="13.91" duration="68.00" routeLength="428.59" waitingTime="26.00" waitingCount="1" stopTime="0.00" timeLoss="37.93" rerouteNo="0" devices="tripinfo_veh_143" vType="car" speedFactor="1.04" vaporized=""/>
    <tripinfo id="veh_144" depart="675.00" departLane="E1_0" departPos="4.60" departSpeed="0.00" departDelay="0.00" arrival="728.00" arrivalLane="E1.200_1" arrivalPos="210.34" arrivalSpeed="13.32" duration="53.00" routeLength="428.59" waitingTime="13.00" waitingCount="1" stopTime="0.00" timeLoss="22.60" rerouteNo="0" devices="tripinfo_veh_144" vType="car" speedFactor="1.04" vaporized=""/>
    <tripinfo id="veh_145" depart="690.00" departLane="E1_0" departPos="2.30" departSpeed="0.00" departDelay="0.00" arrival="729.00" arrivalLane="E1.200_1" arrivalPos="210.34" arrivalSpeed="14.26" duration="39.00" routeLength="430.89" waitingTime="0.00" waitingCount="0" stopTime="0.00" timeLoss="10.16" rerouteNo="0" devices="tripinfo_veh_145" vType="motorcycle" speedFactor="1.09" vaporized=""/>
    <tripinfo id="veh_147" depart="720.00" departLane="E1_0" departPos="2.30" departSpeed="0.00" departDelay="0.00" arrival="777.00" arrivalLane="E1.200_0" arrivalPos="210.34" arrivalSpeed="12.14" duration="57.00" routeLength="430.89" waitingTime="15.00" waitingCount="1" stopTime="0.00" timeLoss="21.70" rerouteNo="0" devices="tripinfo_veh_147" vType="motorcycle" speedFactor="0.90" vaporized=""/>
    <tripinfo id="veh_146" depart="705.00" departLane="E1_0" departPos="4.60" departSpeed="0.00" departDelay="0.00" arrival="778.00" arrivalLane="E1.200_0" arrivalPos="210.34" arrivalSpeed="12.82" duration="73.00" routeLength="428.59" waitingTime="30.00" waitingCount="1" stopTime="0.00" timeLoss="41.84" rerouteNo="0" devices="tripinfo_veh_146" vType="car" speedFactor="1.00" vaporized=""/>
    <tripinfo id="veh_148" depart="730.00" departLane="E1_0" departPos="2.30" departSpeed="0.00" departDelay="0.00" arrival="779.00" arrivalLane="E1.200_1" arrivalPos="210.34" arrivalSpeed="11.69" duration="49.00" routeLength="430.89" waitingTime="6.00" waitingCount="1" stopTime="0.00" timeLoss="12.87" rerouteNo="0" devices="tripinfo_veh_148" vType="motorcycle" speedFactor="0.88" vaporized=""/>
    <tripinfo id="veh_149" depart="740.00" departLane="E1_0" departPos="4.60" departSpeed="0.00" departDelay="0.00" arrival="782.00" arrivalLane="E1.200_0" arrivalPos="210.34" arrivalSpeed="11.81" duration="42.00" routeLength="428.59" waitingTime="0.00" waitingCount="0" stopTime="0.00" timeLoss="4.94" rerouteNo="0" devices="tripinfo_veh_149" vType="car" speedFactor="0.85" vaporized=""/>
    <tripinfo id="veh_151" depart="760.00" departLane="E1_0" departPos="2.30" departSpeed="0.00" departDelay="0.00" arrival="814.00" arrivalLane="E1.200_0" arrivalPos="210.34" arrivalSpeed="15.94" duration="54.00" routeLength="430.89" waitingTime="20.00" waitingCount="1" stopTime="0.00" timeLoss="27.39" rerouteNo="0" devices="tripinfo_veh_151" vType="motorcycle" speedFactor="1.17" vaporized=""/>
    <tripinfo id="veh_152" depart="770.00" departLane="E1_0" departPos="4.60" departSpeed="0.00" departDelay="0.00" arrival="819.00" arrivalLane="E1.200_1" arrivalPos="210.34" arrivalSpeed="13.63" duration="49.00" routeLength="428.59" waitingTime="8.00" waitingCount="1" stopTime="0.00" timeLoss="18.43" rerouteNo="0" devices="tripinfo_veh_152" vType="car" speedFactor="1.02" vaporized=""/>
    <tripinfo id="veh_150" depart="750.00" departLane="E1_0" departPos="4.60" departSpeed="0.00" departDelay="0.00" arrival="821.00" arrivalLane="E1.200_0" arrivalPos="210.34" arrivalSpeed="11.21" duration="71.00" routeLength="428.59" waitingTime="25.00" waitingCount="1" stopTime="0.00" timeLoss="34.70" rerouteNo="0" devices="tripinfo_veh_150" vType="car" speedFactor="0.85" vaporized=""/>
    <tripinfo id="veh_153" depart="780.00" departLane="E1_0" departPos="4.60" departSpeed="0.00" departDelay="0.00" arrival="823.00" arrivalLane="E1.200_0" arrivalPos="210.34" arrivalSpeed="14.97" duration="43.00" routeLength="428.59" waitingTime="0.00" waitingCount="0" stopTime="0.00" timeLoss="14.14" rerouteNo="0" devices="tripinfo_veh_153" vType="car" speedFactor="1.10" vaporized=""/>
    <tripinfo id="veh_154" depart="788.00" departLane="E1_0" departPos="2.30" departSpeed="0.00" departDelay="0.50" arrival="824.00" arrivalLane="E1.200_1" arrivalPos="210.34" arrivalSpeed="13.81" duration="36.00" routeLength="430.89" waitingTime="0.00" waitingCount="0" stopTime="0.00" timeLoss="4.67" rerouteNo="0" devices="tripinfo_veh_154" vType="motorcycle" speedFactor="1.00" vaporized=""/>
    <tripinfo id="veh_155" depart="795.00" departLane="E1_0" departPos="4.60" departSpeed="0.00" departDelay="0.00" arrival="866.00" arrivalLane="E1.200_0" arrivalPos="210.34" arrivalSpeed="13.47" duration="71.00" routeLength="428.59" waitingTime="28.00" waitingCount="1" stopTime="0.00" timeLoss="39.32" rerouteNo="0" devices="tripinfo_veh_155" vType="car" speedFactor="1.00" vaporized=""/>
    <tripinfo id="veh_157" depart="810.00" departLane="E1_0" departPos="4.60" departSpeed="0.00" departDelay="0.00" arrival="867.00" arrivalLane="E1.200_0" arrivalPos="210.34" arrivalSpeed="14.76" duration="57.00" routeLength="428.59" waitingTime="17.00" waitingCount="1" stopTime="0.00" timeLoss="29.89" rerouteNo="0" devices="tripinfo_veh_157" vType="car" speedFactor="1.14" vaporized=""/>
    <tripinfo id="veh_156" depart="803.00" departLane="E1_0" departPos="4.60" departSpeed="0.00" departDelay="0.50" arrival="868.00" arrivalLane="E1.200_1" arrivalPos="210.34" arrivalSpeed="11.75" duration="65.00" routeLength="428.59" waitingTime="20.00" waitingCount="1" stopTime="0.00" timeLoss="29.81" rerouteNo="0" devices="tripinfo_veh_156" vType="car" speedFactor="0.90" vaporized=""/>
    <tripinfo id="veh_158" depart="818.00" departLane="E1_0" departPos="4.60" departSpeed="0.00" departDelay="0.50" arrival="869.00" arrivalLane="E1.200_1" arrivalPos="210.34" arrivalSpeed="13.78" duration="51.00" routeLength="428.59" waitingTime="8.00" waitingCount="1" stopTime="0.00" timeLoss="20.53" rerouteNo="0" devices="tripinfo_veh_158" vType="car" speedFactor="1.02" vaporized=""/>
    <tripinfo id="veh_159" depart="825.00" departLane="E1_0" departPos="4.60" departSpeed="0.00" departDelay="0.00" arrival="870.00" arrivalLane="E1.200_0" arrivalPos="210.34" arrivalSpeed="12.48" duration="45.00" routeLength="428.59" waitingTime="2.00" waitingCount="1" stopTime="0.00" timeLoss="12.88" rerouteNo="0" devices="tripinfo_veh_159" vType="car" speedFactor="0.97" vaporized=""/>
    <tripinfo id="veh_160" depart="833.00" departLane="E1_0" departPos="4.60" departSpeed="0.00" departDelay="0.50" arrival="871.00" arrivalLane="E1.200_1" arrivalPos="210.34" arrivalSpeed="14.16" duration="38.00" routeLength="428.59" waitingTime="0.00" waitingCount="0" stopTime="0.00" timeLoss="8.86" rerouteNo="0" devices="tripinfo_veh_160" vType="car" speedFactor="1.08" vaporized=""/>
    <tripinfo id="veh_161" depart="840.00" departLane="E1_0" departPos="4.60" departSpeed="0.00" departDelay="0.00" arrival="906.00" arrivalLane="E1.200_0" arrivalPos="210.34" arrivalSpeed="14.38" duration="66.00" routeLength="428.59" waitingTime="27.00" waitingCount="1" stopTime="0.00" timeLoss="37.94" rerouteNo="0" devices="tripinfo_veh_161" vType="car" speedFactor="1.12" vaporized=""/>
    <tripinfo id="veh_162" depart="846.00" departLane="E1_0" departPos="4.60" departSpeed="0.00" departDelay="0.00" arrival="908.00" arrivalLane="E1.200_0" arrivalPos="210.34" arrivalSpeed="13.35" duration="62.00" routeLength="428.59" waitingTime="22.00" waitingCount="1" stopTime="0.00" timeLoss="30.89" rerouteNo="0" devices="tripinfo_veh_162" vType="car" speedFactor="1.02" vaporized=""/>
    <tripinfo id="veh_163" depart="852.00" departLane="E1_0" departPos="4.60" departSpeed="0.00" departDelay="0.00" arrival="910.00" arrivalLane="E1.200_0" arrivalPos="210.34" arrivalSpeed="12.84" duration="58.00" routeLength="428.59" waitingTime="16.00" waitingCount="1" stopTime="0.00" timeLoss="26.35" rerouteNo="0" devices="tripinfo_veh_163" vType="car" speedFactor="0.99" vaporized=""/>
    <tripinfo id="veh_164" depart="858.00" departLane="E1_0" departPos="4.60" departSpeed="0.00" departDelay="0.00" arrival="911.00" arrivalLane="E1.200_1" arrivalPos="210.34" arrivalSpeed="12.95" duration="53.00" routeLength="428.59" waitingTime="9.00" waitingCount="1" stopTime="0.00" timeLoss="19.22" rerouteNo="0" devices="tripinfo_veh_164" vType="car" speedFactor="0.94" vaporized=""/>
    <tripinfo id="veh_166" depart="870.00" departLane="E1_0" departPos="4.60" departSpeed="0.00" departDelay="0.00" arrival="913.00" arrivalLane="E1.200_1" arrivalPos="210.34" arrivalSpeed="11.40" duration="43.00" routeLength="428.59" waitingTime="0.00" waitingCount="0" stopTime="0.00" timeLoss="8.75" rerouteNo="0" devices="tripinfo_veh_166" vType="car" speedFactor="0.91" vaporized=""/>
    <tripinfo id="veh_165" depart="864.00" departLane="E1_0" departPos="4.60" departSpeed="0.00" departDelay="0.00" arrival="914.00" arrivalLane="E1.200_0" arrivalPos="210.34" arrivalSpeed="11.48" duration="50.00" routeLength="428.59" waitingTime="4.00" waitingCount="1" stopTime="0.00" timeLoss="14.37" rerouteNo="0" devices="tripinfo_veh_165" vType="car" speedFactor="0.88" vaporized=""/>
    <tripinfo id="veh_167" depart="876.00" departLane="E1_0" departPos="4.60" departSpeed="0.00" departDelay="0.00" arrival="916.00" arrivalLane="E1.200_0" arrivalPos="210.34" arrivalSpeed="12.35" duration="40.00" routeLength="428.59" waitingTime="0.00" waitingCount="0" stopTime="0.00" timeLoss="5.33" rerouteNo="0" devices="tripinfo_veh_167" vType="car" speedFactor="0.91" vaporized=""/>
    <tripinfo id="veh_73" depart="594.00" departLane="-E1_0" departPos="4.60" departSpeed="0.00" departDelay="0.00" arrival="930.00" arrivalLane="-E1.238_0" arrivalPos="201.89" arrivalSpeed="14.26" duration="336.00" routeLength="407.63" waitingTime="301.00" waitingCount="1" stopTime="0.00" timeLoss="307.18" rerouteNo="0" devices="tripinfo_veh_73" vType="car" speedFactor="1.03" vaporized=""/>
    <tripinfo id="veh_168" depart="882.00" departLane="E1_0" departPos="4.60" departSpeed="0.00" departDelay="0.00" arrival="956.00" arrivalLane="E1.200_0" arrivalPos="210.34" arrivalSpeed="13.92" duration="74.00" routeLength="428.59" waitingTime="36.00" waitingCount="1" stopTime="0.00" timeLoss="43.54" rerouteNo="0" devices="tripinfo_veh_168" vType="car" speedFactor="1.04" vaporized=""/>
    <tripinfo id="veh_169" depart="888.00" departLane="E1_0" departPos="4.60" departSpeed="0.00" departDelay="0.00" arrival="956.00" arrivalLane="E1.200_1" arrivalPos="210.34" arrivalSpeed="14.00" duration="68.00" routeLength="428.59" waitingTime="25.00" waitingCount="1" stopTime="0.00" timeLoss="37.26" rerouteNo="0" devices="tripinfo_veh_169" vType="car" speedFactor="1.02" vaporized=""/>
    <tripinfo id="veh_170" depart="894.00" departLane="E1_0" departPos="2.30" departSpeed="0.00" departDelay="0.00" arrival="957.00" arrivalLane="E1.200_0" arrivalPos="210.34" arrivalSpeed="13.66" duration="63.00" routeLength="430.89" waitingTime="24.00" waitingCount="1" stopTime="0.00" timeLoss="32.65" rerouteNo="0" devices="tripinfo_veh_170" vType="motorcycle" speedFactor="1.02" vaporized=""/>
    <tripinfo id="veh_171" depart="900.00" departLane="E1_0" departPos="4.60" departSpeed="0.00" departDelay="0.00" arrival="958.00" arrivalLane="E1.200_1" arrivalPos="210.34" arrivalSpeed="13.36" duration="58.00" routeLength="428.59" waitingTime="15.00" waitingCount="1" stopTime="0.00" timeLoss="26.06" rerouteNo="0" devices="tripinfo_veh_171" vType="car" speedFactor="0.97" vaporized=""/>
    <tripinfo id="veh_172" depart="905.00" departLane="E1_0" departPos="2.30" departSpeed="0.00" departDelay="0.00" arrival="960.00" arrivalLane="E1.200_0" arrivalPos="210.34" arrivalSpeed="12.52" duration="55.00" routeLength="430.89" waitingTime="14.00" waitingCount="1" stopTime="0.00" timeLoss="21.48" rerouteNo="0" devices="tripinfo_veh_172" vType="motorcycle" speedFactor="0.94" vaporized=""/>