<?xml version="1.0" encoding="UTF-8"?>

<!-- generated on 2025-10-07 22:05:28 by Eclipse SUMO sumo Version 1.24.0
<sumoConfiguration xmlns:xsi="http://www.w3.org/2001/XMLSchema-instance" xsi:noNamespaceSchemaLocation="http://sumo.dlr.de/xsd/sumoConfiguration.xsd">

    <input>
        <net-file value="continuous_flow_results/../demo.net.xml"/>
        <route-files value="continuous_flow_results/continuous_flow_adaptive.rou.xml"/>
    </input>

    <output>
        <tripinfo-output value="continuous_flow_results/tripinfo_adaptive.xml"/>
    </output>

    <time>
        <begin value="0"/>
        <end value="3600"/>
        <step-length value="1"/>
    </time>

    <processing>
        <time-to-teleport value="300"/>
    </processing>

    <report>
        <no-warnings value="true"/>
        <no-step-log value="true"/>
    </report>

    <traci_server>
        <remote-port value="55240"/>
    </traci_server>

</sumoConfiguration>
-->

<tripinfos xmlns:xsi="http://www.w3.org/2001/XMLSchema-instance" xsi:noNamespaceSchemaLocation="http://sumo.dlr.de/xsd/tripinfo_file.xsd">
    <tripinfo id="veh_0" depart="0.00" departLane="E1_0" departPos="4.60" departSpeed="0.00" departDelay="0.00" arrival="55.00" arrivalLane="E1.200_0" arrivalPos="210.34" arrivalSpeed="13.82" duration="55.00" routeLength="428.59" waitingTime="15.00" waitingCount="1" stopTime="0.00" timeLoss="25.54" rerouteNo="0" devices="tripinfo_veh_0" vType="car" speedFactor="1.06" vaporized=""/>
    <tripinfo id="veh_1" depart="15.00" departLane="E1_0" departPos="4.60" departSpeed="0.00" departDelay="0.00" arrival="56.00" arrivalLane="E1.200_1" arrivalPos="210.34" arrivalSpeed="11.93" duration="41.00" routeLength="428.59" waitingTime="0.00" waitingCount="0" stopTime="0.00" timeLoss="7.94" rerouteNo="0" devices="tripinfo_veh_1" vType="car" speedFactor="0.94" vaporized=""/>
    <tripinfo id="veh_2" depart="30.00" departLane="E1_0" departPos="2.30" departSpeed="0.00" departDelay="0.00" arrival="64.00" arrivalLane="E1.200_0" arrivalPos="210.34" arrivalSpeed="13.57" duration="34.00" routeLength="430.89" waitingTime="0.00" waitingCount="0" stopTime="0.00" timeLoss="3.20" rerouteNo="0" devices="tripinfo_veh_2" vType="motorcycle" speedFactor="1.01" vaporized=""/>
    <tripinfo id="veh_3" depart="45.00" departLane="E1_0" departPos="4.60" departSpeed="0.00" departDelay="0.00" arrival="78.00" arrivalLane="E1.200_0" arrivalPos="210.34" arrivalSpeed="14.12" duration="33.00" routeLength="428.59" waitingTime="0.00" waitingCount="0" stopTime="0.00" timeLoss="4.09" rerouteNo="0" devices="tripinfo_veh_3" vType="car" speedFactor="1.08" vaporized=""/>
    <tripinfo id="veh_4" depart="60.00" departLane="E1_0" departPos="4.60" departSpeed="0.00" departDelay="0.00" arrival="128.00" arrivalLane="E1.200_0" arrivalPos="210.34" arrivalSpeed="14.11" duration="68.00" routeLength="428.59" waitingTime="29.00" waitingCount="1" stopTime="0.00" timeLoss="37.91" rerouteNo="0" devices="tripinfo_veh_4" vType="car" speedFactor="1.03" vaporized=""/>
    <tripinfo id="veh_6" depart="90.00" departLane="E1_0" departPos="4.60" departSpeed="0.00" departDelay="0.00" arrival="130.00" arrivalLane="E1.200_0" arrivalPos="210.34" arrivalSpeed="13.73" duration="40.00" routeLength="428.59" waitingTime="0.00" waitingCount="0" stopTime="0.00" timeLoss="10.34" rerouteNo="0" devices="tripinfo_veh_6" vType="car" speedFactor="1.05" vaporized=""/>
    <tripinfo id="veh_5" depart="75.00" departLane="E1_0" departPos="4.60" departSpeed="0.00" departDelay="0.00" arrival="132.00" arrivalLane="E1.200_0" arrivalPos="210.34" arrivalSpeed="11.52" duration="57.00" routeLength="428.59" waitingTime="10.00" waitingCount="1" stopTime="0.00" timeLoss="19.72" rerouteNo="0" devices="tripinfo_veh_5" vType="car" speedFactor="0.83" vaporized=""/>
    <tripinfo id="veh_7" depart="105.00" departLane="E1_0" departPos="4.60" departSpeed="0.00" departDelay="0.00" arrival="144.00" arrivalLane="E1.200_0" arrivalPos="210.34" arrivalSpeed="11.79" duration="39.00" routeLength="428.59" waitingTime="0.00" waitingCount="0" stopTime="0.00" timeLoss="4.11" rerouteNo="0" devices="tripinfo_veh_7" vType="car" speedFactor="0.89" vaporized=""/>
    <tripinfo id="veh_8" depart="120.00" departLane="E1_0" departPos="4.60" departSpeed="0.00" departDelay="0.00" arrival="157.00" arrivalLane="E1.200_0" arrivalPos="210.34" arrivalSpeed="12.97" duration="37.00" routeLength="428.59" waitingTime="0.00" waitingCount="0" stopTime="0.00" timeLoss="3.77" rerouteNo="0" devices="tripinfo_veh_8" vType="car" speedFactor="0.94" vaporized=""/>
    <tripinfo id="veh_10" depart="150.00" departLane="E1_0" departPos="2.30" departSpeed="0.00" departDelay="0.00" arrival="205.00" arrivalLane="E1.200_0" arrivalPos="210.34" arrivalSpeed="15.04" duration="55.00" routeLength="430.89" waitingTime="19.00" waitingCount="1" stopTime="0.00" timeLoss="26.18" rerouteNo="0" devices="tripinfo_veh_10" vType="motorcycle" speedFactor="1.09" vaporized=""/>
    <tripinfo id="veh_11" depart="165.00" departLane="E1_0" departPos="2.30" departSpeed="0.00" departDelay="0.00" arrival="208.00" arrivalLane="E1.200_1" arrivalPos="210.34" arrivalSpeed="14.10" duration="43.00" routeLength="430.89" waitingTime="5.00" waitingCount="1" stopTime="0.00" timeLoss="11.87" rerouteNo="0" devices="tripinfo_veh_11" vType="motorcycle" speedFactor="1.03" vaporized=""/>
    <tripinfo id="veh_9" depart="135.00" departLane="E1_0" departPos="4.60" departSpeed="0.00" departDelay="0.00" arrival="211.00" arrivalLane="E1.200_0" arrivalPos="210.34" arrivalSpeed="11.63" duration="76.00" routeLength="428.59" waitingTime="30.00" waitingCount="1" stopTime="0.00" timeLoss="39.07" rerouteNo="0" devices="tripinfo_veh_9" vType="car" speedFactor="0.86" vaporized=""/>
    <tripinfo id="veh_12" depart="180.00" departLane="E1_0" departPos="4.60" departSpeed="0.00" departDelay="0.00" arrival="216.00" arrivalLane="E1.200_0" arrivalPos="210.34" arrivalSpeed="13.37" duration="36.00" routeLength="428.59" waitingTime="0.00" waitingCount="0" stopTime="0.00" timeLoss="5.77" rerouteNo="0" devices="tripinfo_veh_12" vType="car" speedFactor="1.05" vaporized=""/>
    <tripinfo id="veh_13" depart="195.00" departLane="E1_0" departPos="4.60" departSpeed="0.00" departDelay="0.00" arrival="228.00" arrivalLane="E1.200_0" arrivalPos="210.34" arrivalSpeed="14.58" duration="33.00" routeLength="428.59" waitingTime="0.00" waitingCount="0" stopTime="0.00" timeLoss="4.93" rerouteNo="0" devices="tripinfo_veh_13" vType="car" speedFactor="1.12" vaporized=""/>
    <tripinfo id="veh_14" depart="210.00" departLane="E1_0" departPos="4.60" departSpeed="0.00" departDelay="0.00" arrival="281.00" arrivalLane="E1.200_0" arrivalPos="210.34" arrivalSpeed="13.18" duration="71.00" routeLength="428.59" waitingTime="30.00" waitingCount="1" stopTime="0.00" timeLoss="39.37" rerouteNo="0" devices="tripinfo_veh_14" vType="car" speedFactor="0.99" vaporized=""/>
    <tripinfo id="veh_15" depart="225.00" departLane="E1_0" departPos="4.60" departSpeed="0.00" departDelay="0.00" arrival="283.00" arrivalLane="E1.200_0" arrivalPos="210.34" arrivalSpeed="11.94" duration="58.00" routeLength="428.59" waitingTime="15.00" waitingCount="1" stopTime="0.00" timeLoss="24.30" rerouteNo="0" devices="tripinfo_veh_15" vType="car" speedFactor="0.93" vaporized=""/>
    <tripinfo id="veh_16" depart="240.00" departLane="E1_0" departPos="4.60" departSpeed="0.00" departDelay="0.00" arrival="285.00" arrivalLane="E1.200_0" arrivalPos="210.34" arrivalSpeed="11.79" duration="45.00" routeLength="428.59" waitingTime="0.00" waitingCount="0" stopTime="0.00" timeLoss="9.78" rerouteNo="0" devices="tripinfo_veh_16" vType="car" speedFactor="0.88" vaporized=""/>
    <tripinfo id="veh_17" depart="255.00" departLane="E1_0" departPos="2.30" departSpeed="0.00" departDelay="0.00" arrival="292.00" arrivalLane="E1.200_0" arrivalPos="210.34" arrivalSpeed="12.38" duration="37.00" routeLength="430.89" waitingTime="0.00" waitingCount="0" stopTime="0.00" timeLoss="3.29" rerouteNo="0" devices="tripinfo_veh_17" vType="motorcycle" speedFactor="0.94" vaporized=""/>
    <tripinfo id="veh_18" depart="270.00" departLane="E1_0" departPos="4.60" departSpeed="0.00" departDelay="0.00" arrival="308.00" arrivalLane="E1.200_0" arrivalPos="210.34" arrivalSpeed="12.89" duration="38.00" routeLength="428.59" waitingTime="0.00" waitingCount="0" stopTime="0.00" timeLoss="4.30" rerouteNo="0" devices="tripinfo_veh_18" vType="car" speedFactor="0.94" vaporized=""/>
    <tripinfo id="veh_20" depart="300.00" departLane="E1_0" departPos="2.30" departSpeed="0.00" departDelay="0.00" arrival="358.00" arrivalLane="E1.200_0" arrivalPos="210.34" arrivalSpeed="13.14" duration="58.00" routeLength="430.89" waitingTime="20.00" waitingCount="1" stopTime="0.00" timeLoss="27.52" rerouteNo="0" devices="tripinfo_veh_20" vType="motorcycle" speedFactor="1.02" vaporized=""/>
    <tripinfo id="veh_19" depart="285.00" departLane="E1_0" departPos="4.60" departSpeed="0.00" departDelay="0.00" arrival="360.00" arrivalLane="E1.200_0" arrivalPos="210.34" arrivalSpeed="15.47" duration="75.00" routeLength="428.59" waitingTime="35.00" waitingCount="1" stopTime="0.00" timeLoss="47.72" rerouteNo="0" devices="tripinfo_veh_19" vType="car" speedFactor="1.16" vaporized=""/>
    <tripinfo id="veh_21" depart="315.00" departLane="E1_0" departPos="4.60" departSpeed="0.00" departDelay="0.00" arrival="361.00" arrivalLane="E1.200_1" arrivalPos="210.34" arrivalSpeed="13.03" duration="46.00" routeLength="428.59" waitingTime="3.00" waitingCount="1" stopTime="0.00" timeLoss="14.78" rerouteNo="0" devices="tripinfo_veh_21" vType="car" speedFactor="1.01" vaporized=""/>
    <tripinfo id="veh_22" depart="330.00" departLane="E1_0" departPos="4.60" departSpeed="0.00" departDelay="0.00" arrival="367.00" arrivalLane="E1.200_0" arrivalPos="210.34" arrivalSpeed="13.09" duration="37.00" routeLength="428.59" waitingTime="0.00" waitingCount="0" stopTime="0.00" timeLoss="4.54" rerouteNo="0" devices="tripinfo_veh_22" vType="car" speedFactor="0.97" vaporized=""/>
    <tripinfo id="veh_23" depart="345.00" departLane="E1_0" departPos="4.60" departSpeed="0.00" departDelay="0.00" arrival="385.00" arrivalLane="E1.200_0" arrivalPos="210.34" arrivalSpeed="11.17" duration="40.00" routeLength="428.59" waitingTime="0.00" waitingCount="0" stopTime="0.00" timeLoss="5.21" rerouteNo="0" devices="tripinfo_veh_23" vType="car" speedFactor="0.89" vaporized=""/>
    <tripinfo id="veh_24" depart="360.00" departLane="E1_0" departPos="2.30" departSpeed="0.00" departDelay="0.00" arrival="435.00" arrivalLane="E1.200_0" arrivalPos="210.34" arrivalSpeed="11.02" duration="75.00" routeLength="430.89" waitingTime="30.00" waitingCount="1" stopTime="0.00" timeLoss="36.78" rerouteNo="0" devices="tripinfo_veh_24" vType="motorcycle" speedFactor="0.83" vaporized=""/>
    <tripinfo id="veh_25" depart="375.00" departLane="E1_0" departPos="4.60" departSpeed="0.00" departDelay="0.00" arrival="435.00" arrivalLane="E1.200_1" arrivalPos="210.34" arrivalSpeed="10.87" duration="60.00" routeLength="428.59" waitingTime="15.00" waitingCount="1" stopTime="0.00" timeLoss="24.10" rerouteNo="0" devices="tripinfo_veh_25" vType="car" speedFactor="0.87" vaporized=""/>
    <tripinfo id="veh_26" depart="390.00" departLane="E1_0" departPos="4.60" departSpeed="0.00" departDelay="0.00" arrival="437.00" arrivalLane="E1.200_0" arrivalPos="210.34" arrivalSpeed="12.48" duration="47.00" routeLength="428.59" waitingTime="3.00" waitingCount="1" stopTime="0.00" timeLoss="12.41" rerouteNo="0" devices="tripinfo_veh_26" vType="car" speedFactor="0.92" vaporized=""/>
    <tripinfo id="veh_27" depart="405.00" departLane="E1_0" departPos="4.60" departSpeed="0.00" departDelay="0.00" arrival="442.00" arrivalLane="E1.200_0" arrivalPos="210.34" arrivalSpeed="12.11" duration="37.00" routeLength="428.59" waitingTime="0.00" waitingCount="0" stopTime="0.00" timeLoss="4.37" rerouteNo="0" devices="tripinfo_veh_27" vType="car" speedFactor="0.95" vaporized=""/>
    <tripinfo id="veh_28" depart="420.00" departLane="E1_0" departPos="4.60" departSpeed="0.00" departDelay="0.00" arrival="453.00" arrivalLane="E1.200_0" arrivalPos="210.34" arrivalSpeed="15.06" duration="33.00" routeLength="428.59" waitingTime="0.00" waitingCount="0" stopTime="0.00" timeLoss="4.95" rerouteNo="0" devices="tripinfo_veh_28" vType="car" speedFactor="1.13" vaporized=""/>
    <tripinfo id="veh_30" depart="450.00" departLane="E1_0" departPos="4.60" departSpeed="0.00" departDelay="0.00" arrival="510.00" arrivalLane="E1.200_0" arrivalPos="210.34" arrivalSpeed="15.67" duration="60.00" routeLength="428.59" waitingTime="22.00" waitingCount="1" stopTime="0.00" timeLoss="33.50" rerouteNo="0" devices="tripinfo_veh_30" vType="car" speedFactor="1.18" vaporized=""/>
    <tripinfo id="veh_29" depart="435.00" departLane="E1_0" departPos="4.60" departSpeed="0.00" departDelay="0.00" arrival="514.00" arrivalLane="E1.200_0" arrivalPos="210.34" arrivalSpeed="12.09" duration="79.00" routeLength="428.59" waitingTime="35.00" waitingCount="1" stopTime="0.00" timeLoss="44.99" rerouteNo="0" devices="tripinfo_veh_29" vType="car" speedFactor="0.93" vaporized=""/>
    <tripinfo id="veh_31" depart="465.00" departLane="E1_0" departPos="4.60" departSpeed="0.00" departDelay="0.00" arrival="515.00" arrivalLane="E1.200_0" arrivalPos="210.34" arrivalSpeed="14.44" duration="50.00" routeLength="428.59" waitingTime="7.00" waitingCount="1" stopTime="0.00" timeLoss="22.96" rerouteNo="0" devices="tripinfo_veh_31" vType="car" speedFactor="1.15" vaporized=""/>
    <tripinfo id="veh_32" depart="480.00" departLane="E1_0" departPos="4.60" departSpeed="0.00" departDelay="0.00" arrival="517.00" arrivalLane="E1.200_0" arrivalPos="210.34" arrivalSpeed="12.74" duration="37.00" routeLength="428.59" waitingTime="0.00" waitingCount="0" stopTime="0.00" timeLoss="5.67" rerouteNo="0" devices="tripinfo_veh_32" vType="car" speedFactor="1.01" vaporized=""/>
    <tripinfo id="veh_33" depart="495.00" departLane="E1_0" departPos="4.60" departSpeed="0.00" departDelay="0.00" arrival="526.00" arrivalLane="E1.200_0" arrivalPos="210.34" arrivalSpeed="15.44" duration="31.00" routeLength="428.59" waitingTime="0.00" waitingCount="0" stopTime="0.00" timeLoss="4.44" rerouteNo="0" devices="tripinfo_veh_33" vType="car" speedFactor="1.17" vaporized=""/>
    <tripinfo id="veh_35" depart="525.00" departLane="E1_0" departPos="4.60" departSpeed="0.00" departDelay="0.00" arrival="584.00" arrivalLane="E1.200_1" arrivalPos="210.34" arrivalSpeed="13.27" duration="59.00" routeLength="428.59" waitingTime="18.00" waitingCount="1" stopTime="0.00" timeLoss="28.71" rerouteNo="0" devices="tripinfo_veh_35" vType="car" speedFactor="1.02" vaporized=""/>
    <tripinfo id="veh_34" depart="510.00" departLane="E1_0" departPos="4.60" departSpeed="0.00" departDelay="0.00" arrival="585.00" arrivalLane="E1.200_0" arrivalPos="210.34" arrivalSpeed="13.26" duration="75.00" routeLength="428.59" waitingTime="34.00" waitingCount="1" stopTime="0.00" timeLoss="43.95" rerouteNo="0" devices="tripinfo_veh_34" vType="car" speedFactor="0.99" vaporized=""/>
    <tripinfo id="veh_36" depart="540.00" departLane="E1_0" departPos="2.30" departSpeed="0.00" departDelay="0.00" arrival="587.00" arrivalLane="E1.200_1" arrivalPos="210.34" arrivalSpeed="13.22" duration="47.00" routeLength="430.89" waitingTime="6.00" waitingCount="1" stopTime="0.00" timeLoss="14.33" rerouteNo="0" devices="tripinfo_veh_36" vType="motorcycle" speedFactor="0.97" vaporized=""/>
    <tripinfo id="veh_37" depart="555.00" departLane="E1_0" departPos="4.60" departSpeed="0.00" departDelay="0.00" arrival="587.00" arrivalLane="E1.200_0" arrivalPos="210.34" arrivalSpeed="15.42" duration="32.00" routeLength="428.59" waitingTime="0.00" waitingCount="0" stopTime="0.00" timeLoss="5.42" rerouteNo="0" devices="tripinfo_veh_37" vType="car" speedFactor="1.18" vaporized=""/>
    <tripinfo id="veh_38" depart="570.00" departLane="E1_0" departPos="2.30" departSpeed="0.00" departDelay="0.00" arrival="602.00" arrivalLane="E1.200_0" arrivalPos="210.34" arrivalSpeed="14.80" duration="32.00" routeLength="430.89" waitingTime="0.00" waitingCount="0" stopTime="0.00" timeLoss="3.05" rerouteNo="0" devices="tripinfo_veh_38" vType="motorcycle" speedFactor="1.10" vaporized=""/>
    <tripinfo id="veh_141" depart="600.00" departLane="E1_0" departPos="2.30" departSpeed="0.00" departDelay="0.00" arrival="663.00" arrivalLane="E1.200_1" arrivalPos="210.34" arrivalSpeed="12.63" duration="63.00" routeLength="430.89" waitingTime="23.00" waitingCount="1" stopTime="0.00" timeLoss="30.41" rerouteNo="0" devices="tripinfo_veh_141" vType="motorcycle" speedFactor="0.96" vaporized=""/>
    <tripinfo id="veh_39" depart="585.00" departLane="E1_0" departPos="2.30" departSpeed="0.00" departDelay="0.00" arrival="664.00" arrivalLane="E1.200_0" arrivalPos="210.34" arrivalSpeed="12.20" duration="79.00" routeLength="430.89" waitingTime="38.00" waitingCount="1" stopTime="0.00" timeLoss="44.56" rerouteNo="0" devices="tripinfo_veh_39" vType="motorcycle" speedFactor="0.90" vaporized=""/>
    <tripinfo id="veh_142" depart="630.00" departLane="E1_0" departPos="4.60" departSpeed="0.00" departDelay="0.00" arrival="666.00" arrivalLane="E1.200_0" arrivalPos="210.34" arrivalSpeed="14.48" duration="36.00" routeLength="428.59" waitingTime="0.00" waitingCount="0" stopTime="0.00" timeLoss="7.21" rerouteNo="0" devices="tripinfo_veh_142" vType="car" speedFactor="1.09" vaporized=""/>
    <tripinfo id="veh_143" depart="660.00" departLane="E1_0" departPos="4.60" departSpeed="0.00" departDelay="0.00" arrival="736.00" arrivalLane="E1.200_0" arrivalPos="210.34" arrivalSpeed="14.17" duration="76.00" routeLength="428.59" waitingTime="36.00" waitingCount="1" stopTime="0.00" timeLoss="45.92" rerouteNo="0" devices="tripinfo_veh_143" vType="car" speedFactor="1.04" vaporized=""/>
    <tripinfo id="veh_144" depart="675.00" departLane="E1_0" departPos="4.60" departSpeed="0.00" departDelay="0.00" arrival="737.00" arrivalLane="E1.200_1" arrivalPos="210.34" arrivalSpeed="14.46" duration="62.00" routeLength="428.59" waitingTime="19.00" waitingCount="1" stopTime="0.00" timeLoss="31.57" rerouteNo="0" devices="tripinfo_veh_144" vType="car" speedFactor="1.04" vaporized=""/>
    <tripinfo id="veh_145" depart="690.00" departLane="E1_0" departPos="4.60" departSpeed="0.00" departDelay="0.00" arrival="738.00" arrivalLane="E1.200_0" arrivalPos="210.34" arrivalSpeed="14.12" duration="48.00" routeLength="428.59" waitingTime="8.00" waitingCount="1" stopTime="0.00" timeLoss="19.03" rerouteNo="0" devices="tripinfo_veh_145" vType="car" speedFactor="1.09" vaporized=""/>
    <tripinfo id="veh_146" depart="705.00" departLane="E1_0" departPos="4.60" departSpeed="0.00" departDelay="0.00" arrival="741.00" arrivalLane="E1.200_0" arrivalPos="210.34" arrivalSpeed="13.17" duration="36.00" routeLength="428.59" waitingTime="0.00" waitingCount="0" stopTime="0.00" timeLoss="4.39" rerouteNo="0" devices="tripinfo_veh_146" vType="car" speedFactor="1.00" vaporized=""/>
    <tripinfo id="veh_147" depart="720.00" departLane="E1_0" departPos="2.30" departSpeed="0.00" departDelay="0.00" arrival="758.00" arrivalLane="E1.200_0" arrivalPos="210.34" arrivalSpeed="11.68" duration="38.00" routeLength="430.89" waitingTime="0.00" waitingCount="0" stopTime="0.00" timeLoss="2.79" rerouteNo="0" devices="tripinfo_veh_147" vType="motorcycle" speedFactor="0.90" vaporized=""/>
    <tripinfo id="veh_148" depart="730.00" departLane="E1_0" departPos="4.60" departSpeed="0.00" departDelay="0.00" arrival="818.00" arrivalLane="E1.200_0" arrivalPos="210.34" arrivalSpeed="11.01" duration="88.00" routeLength="428.59" waitingTime="43.00" waitingCount="1" stopTime="0.00" timeLoss="52.56" rerouteNo="0" devices="tripinfo_veh_148" vType="car" speedFactor="0.88" vaporized=""/>
    <tripinfo id="veh_149" depart="740.00" departLane="E1_0" departPos="4.60" departSpeed="0.00" departDelay="0.00" arrival="818.00" arrivalLane="E1.200_1" arrivalPos="210.34" arrivalSpeed="10.94" duration="78.00" routeLength="428.59" waitingTime="30.00" waitingCount="1" stopTime="0.00" timeLoss="40.98" rerouteNo="0" devices="tripinfo_veh_149" vType="car" speedFactor="0.85" vaporized=""/>
    <tripinfo id="veh_151" depart="760.00" departLane="E1_0" departPos="4.60" departSpeed="0.00" departDelay="0.00" arrival="819.00" arrivalLane="E1.200_1" arrivalPos="210.34" arrivalSpeed="12.76" duration="59.00" routeLength="428.59" waitingTime="16.00" waitingCount="1" stopTime="0.00" timeLoss="32.49" rerouteNo="0" devices="tripinfo_veh_151" vType="car" speedFactor="1.17" vaporized=""/>
    <tripinfo id="veh_150" depart="750.00" departLane="E1_0" departPos="2.30" departSpeed="0.00" departDelay="0.00" arrival="820.00" arrivalLane="E1.200_0" arrivalPos="210.34" arrivalSpeed="10.83" duration="70.00" routeLength="430.89" waitingTime="24.00" waitingCount="1" stopTime="0.00" timeLoss="33.46" rerouteNo="0" devices="tripinfo_veh_150" vType="motorcycle" speedFactor="0.85" vaporized=""/>
    <tripinfo id="veh_153" depart="780.00" departLane="E1_0" departPos="4.60" departSpeed="0.00" departDelay="0.00" arrival="821.00" arrivalLane="E1.200_1" arrivalPos="210.34" arrivalSpeed="14.32" duration="41.00" routeLength="428.59" waitingTime="0.00" waitingCount="0" stopTime="0.00" timeLoss="12.26" rerouteNo="0" devices="tripinfo_veh_153" vType="car" speedFactor="1.10" vaporized=""/>
    <tripinfo id="veh_152" depart="770.00" departLane="E1_0" departPos="4.60" departSpeed="0.00" departDelay="0.00" arrival="822.00" arrivalLane="E1.200_0" arrivalPos="210.34" arrivalSpeed="13.01" duration="52.00" routeLength="428.59" waitingTime="7.00" waitingCount="1" stopTime="0.00" timeLoss="20.89" rerouteNo="0" devices="tripinfo_veh_152" vType="car" speedFactor="1.02" vaporized=""/>
    <tripinfo id="veh_154" depart="788.00" departLane="E1_0" departPos="4.60" departSpeed="0.00" departDelay="0.50" arrival="858.00" arrivalLane="E1.200_0" arrivalPos="210.34" arrivalSpeed="13.73" duration="70.00" routeLength="428.59" waitingTime="29.00" waitingCount="1" stopTime="0.00" timeLoss="38.71" rerouteNo="0" devices="tripinfo_veh_154" vType="car" speedFactor="1.00" vaporized=""/>
    <tripinfo id="veh_155" depart="795.00" departLane="E1_0" departPos="4.60" departSpeed="0.00" departDelay="0.00" arrival="858.00" arrivalLane="E1.200_1" arrivalPos="210.34" arrivalSpeed="13.60" duration="63.00" routeLength="428.59" waitingTime="22.00" waitingCount="1" stopTime="0.00" timeLoss="31.93" rerouteNo="0" devices="tripinfo_veh_155" vType="car" speedFactor="1.00" vaporized=""/>
    <tripinfo id="veh_157" depart="810.00" departLane="E1_0" departPos="4.60" departSpeed="0.00" departDelay="0.00" arrival="860.00" arrivalLane="E1.200_1" arrivalPos="210.34" arrivalSpeed="14.87" duration="50.00" routeLength="428.59" waitingTime="9.00" waitingCount="1" stopTime="0.00" timeLoss="22.40" rerouteNo="0" devices="tripinfo_veh_157" vType="car" speedFactor="1.14" vaporized=""/>
    <tripinfo id="veh_156" depart="803.00" departLane="E1_0" departPos="4.60" departSpeed="0.00" departDelay="0.50" arrival="862.00" arrivalLane="E1.200_0" arrivalPos="210.34" arrivalSpeed="12.05" duration="59.00" routeLength="428.59" waitingTime="13.00" waitingCount="1" stopTime="0.00" timeLoss="23.76" rerouteNo="0" devices="tripinfo_veh_156" vType="car" speedFactor="0.90" vaporized=""/>
    <tripinfo id="veh_158" depart="818.00" departLane="E1_0" departPos="4.60" departSpeed="0.00" departDelay="0.50" arrival="863.00" arrivalLane="E1.200_0" arrivalPos="210.34" arrivalSpeed="13.74" duration="45.00" routeLength="428.59" waitingTime="1.00" waitingCount="1" stopTime="0.00" timeLoss="14.61" rerouteNo="0" devices="tripinfo_veh_158" vType="car" speedFactor="1.02" vaporized=""/>
    <tripinfo id="veh_159" depart="825.00" departLane="E1_0" departPos="4.60" departSpeed="0.00" departDelay="0.00" arrival="863.00" arrivalLane="E1.200_1" arrivalPos="210.34" arrivalSpeed="13.21" duration="38.00" routeLength="428.59" waitingTime="0.00" waitingCount="0" stopTime="0.00" timeLoss="5.51" rerouteNo="0" devices="tripinfo_veh_159" vType="car" speedFactor="0.97" vaporized=""/>
    <tripinfo id="veh_160" depart="833.00" departLane="E1_0" departPos="4.60" departSpeed="0.00" departDelay="0.50" arrival="866.00" arrivalLane="E1.200_0" arrivalPos="210.34" arrivalSpeed="14.53" duration="33.00" routeLength="428.59" waitingTime="0.00" waitingCount="0" stopTime="0.00" timeLoss="4.39" rerouteNo="0" devices="tripinfo_veh_160" vType="car" speedFactor="1.08" vaporized=""/>
    <tripinfo id="veh_161" depart="840.00" departLane="E1_0" departPos="4.60" departSpeed="0.00" departDelay="0.00" arrival="872.00" arrivalLane="E1.200_0" arrivalPos="210.34" arrivalSpeed="14.83" duration="32.00" routeLength="428.59" waitingTime="0.00" waitingCount="0" stopTime="0.00" timeLoss="4.39" rerouteNo="0" devices="tripinfo_veh_161" vType="car" speedFactor="1.12" vaporized=""/>
    <tripinfo id="veh_162" depart="846.00" departLane="E1_0" departPos="4.60" departSpeed="0.00" departDelay="0.00" arrival="881.00" arrivalLane="E1.200_0" arrivalPos="210.34" arrivalSpeed="13.41" duration="35.00" routeLength="428.59" waitingTime="0.00" waitingCount="0" stopTime="0.00" timeLoss="4.49" rerouteNo="0" devices="tripinfo_veh_162" vType="car" speedFactor="1.02" vaporized=""/>
    <tripinfo id="veh_163" depart="852.00" departLane="E1_0" departPos="4.60" departSpeed="0.00" departDelay="0.00" arrival="923.00" arrivalLane="E1.200_0" arrivalPos="210.34" arrivalSpeed="13.34" duration="71.00" routeLength="428.59" waitingTime="28.00" waitingCount="1" stopTime="0.00" timeLoss="38.97" rerouteNo="0" devices="tripinfo_veh_163" vType="car" speedFactor="0.99" vaporized=""/>
    <tripinfo id="veh_164" depart="858.00" departLane="E1_0" departPos="4.60" departSpeed="0.00" departDelay="0.00" arrival="923.00" arrivalLane="E1.200_1" arrivalPos="210.34" arrivalSpeed="12.50" duration="65.00" routeLength="428.59" waitingTime="22.00" waitingCount="1" stopTime="0.00" timeLoss="31.98" rerouteNo="0" devices="tripinfo_veh_164" vType="car" speedFactor="0.94" vaporized=""/>
    <tripinfo id="veh_165" depart="864.00" departLane="E1_0" departPos="4.60" departSpeed="0.00" departDelay="0.00" arrival="926.00" arrivalLane="E1.200_0" arrivalPos="210.34" arrivalSpeed="12.02" duration="62.00" routeLength="428.59" waitingTime="17.00" waitingCount="1" stopTime="0.00" timeLoss="26.47" rerouteNo="0" devices="tripinfo_veh_165" vType="car" speedFactor="0.88" vaporized=""/>
    <tripinfo id="veh_166" depart="870.00" departLane="E1_0" departPos="4.60" departSpeed="0.00" departDelay="0.00" arrival="926.00" arrivalLane="E1.200_1" arrivalPos="210.34" arrivalSpeed="11.64" duration="56.00" routeLength="428.59" waitingTime="11.00" waitingCount="1" stopTime="0.00" timeLoss="21.84" rerouteNo="0" devices="tripinfo_veh_166" vType="car" speedFactor="0.91" vaporized=""/>
    <tripinfo id="veh_167" depart="876.00" departLane="E1_0" departPos="2.30" departSpeed="0.00" departDelay="0.00" arrival="928.00" arrivalLane="E1.200_0" arrivalPos="210.34" arrivalSpeed="11.74" duration="52.00" routeLength="430.89" waitingTime="7.00" waitingCount="1" stopTime="0.00" timeLoss="17.34" rerouteNo="0" devices="tripinfo_veh_167" vType="motorcycle" speedFactor="0.91" vaporized=""/>
    <tripinfo id="veh_168" depart="882.00" departLane="E1_0" departPos="4.60" departSpeed="0.00" departDelay="0.00" arrival="928.00" arrivalLane="E1.200_1" arrivalPos="210.34" arrivalSpeed="13.34" duration="46.00" routeLength="428.59" waitingTime="1.00" waitingCount="1" stopTime="0.00" timeLoss="15.82" rerouteNo="0" devices="tripinfo_veh_168" vType="car" speedFactor="1.04" vaporized=""/>
    <tripinfo id="veh_169" depart="888.00" departLane="E1_0" departPos="4.60" departSpeed="0.00" departDelay="0.00" arrival="929.00" arrivalLane="E1.200_0" arrivalPos="210.34" arrivalSpeed="13.24" duration="41.00" routeLength="428.59" waitingTime="0.00" waitingCount="0" stopTime="0.00" timeLoss="10.60" rerouteNo="0" devices="tripinfo_veh_169" vType="car" speedFactor="1.02" vaporized=""/>
    <tripinfo id="veh_73" depart="594.00" departLane="-E1_0" departPos="4.60" departSpeed="0.00" departDelay="0.00" arrival="930.00" arrivalLane="-E1.238_0" arrivalPos="201.89" arrivalSpeed="14.26" duration="336.00" routeLength="407.63" waitingTime="301.00" waitingCount="1" stopTime="0.00" timeLoss="307.18" rerouteNo="0" devices="tripinfo_veh_73" vType="car" speedFactor="1.03" vaporized=""/>
    <tripinfo id="veh_170" depart="894.00" departLane="E1_0" departPos="2.30" departSpeed="0.00" departDelay="0.00" arrival="930.00" arrivalLane="E1.200_1" arrivalPos="210.34" arrivalSpeed="13.49" duration="36.00" routeLength="430.89" waitingTime="0.00" waitingCount="0" stopTime="0.00" timeLoss="4.77" rerouteNo="0" devices="tripinfo_veh_170" vType="motorcycle" speedFactor="1.02" vaporized=""/>
    <tripinfo id="veh_171" depart="900.00" departLane="E1_0" departPos="4.60" departSpeed="0.00" departDelay="0.00" arrival="936.00" arrivalLane="E1.200_0" arrivalPos="210.34" arrivalSpeed="13.23" duration="36.00" routeLength="428.59" waitingTime="0.00" waitingCount="0" stopTime="0.00" timeLoss="4.20" rerouteNo="0" devices="tripinfo_veh_171" vType="car" speedFactor="0.97" vaporized=""/>
    <tripinfo id="veh_172" depart="905.00" departLane="E1_0" departPos="4.60" departSpeed="0.00" departDelay="0.00" arrival="943.00" arrivalLane="E1.200_0" arrivalPos="210.34" arrivalSpeed="12.60" duration="38.00" routeLength="428.59" waitingTime="0.00" waitingCount="0" stopTime="0.00" timeLoss="5.03" rerouteNo="0" devices="tripinfo_veh_172" vType="car" speedFactor="0.94" vaporized=""/>