<?xml version="1.0" encoding="UTF-8"?>

<!-- generated on 2025-10-07 19:38:52 by Eclipse SUMO sumo Version 1.24.0
<sumoConfiguration xmlns:xsi="http://www.w3.org/2001/XMLSchema-instance" xsi:noNamespaceSchemaLocation="http://sumo.dlr.de/xsd/sumoConfiguration.xsd">

    <input>
        <net-file value="scenario_results/../../demo.net.xml"/>
        <route-files value="scenario_results/dynamic_mixed_traffic_normal.rou.xml"/>
    </input>

    <output>
        <tripinfo-output value="scenario_results/tripinfo_normal.xml"/>
    </output>

    <time>
        <begin value="0"/>
        <end value="10800"/>
        <step-length value="1"/>
    </time>

    <processing>
        <time-to-teleport value="300"/>
    </processing>

    <report>
        <no-warnings value="true"/>
        <no-step-log value="true"/>
    </report>

    <traci_server>
        <remote-port value="50498"/>
    </traci_server>

</sumoConfiguration>
-->

<tripinfos xmlns:xsi="http://www.w3.org/2001/XMLSchema-instance" xsi:noNamespaceSchemaLocation="http://sumo.dlr.de/xsd/tripinfo_file.xsd">
    <tripinfo id="veh_0" depart="0.00" departLane="E1_0" departPos="5.10" departSpeed="0.00" departDelay="0.00" arrival="57.00" arrivalLane="E1.200_0" arrivalPos="210.34" arrivalSpeed="13.44" duration="57.00" routeLength="428.09" waitingTime="17.00" waitingCount="1" stopTime="0.00" timeLoss="27.50" rerouteNo="0" devices="tripinfo_veh_0" vType="car" speedFactor="1.06" vaporized=""/>
    <tripinfo id="veh_1" depart="30.00" departLane="E1_0" departPos="5.10" departSpeed="0.00" departDelay="0.00" arrival="68.00" arrivalLane="E1.200_0" arrivalPos="210.34" arrivalSpeed="12.52" duration="38.00" routeLength="428.09" waitingTime="0.00" waitingCount="0" stopTime="0.00" timeLoss="4.44" rerouteNo="0" devices="tripinfo_veh_1" vType="car" speedFactor="0.94" vaporized=""/>
    <tripinfo id="veh_3" depart="90.00" departLane="E1_0" departPos="2.30" departSpeed="0.00" departDelay="0.00" arrival="122.00" arrivalLane="E1.200_1" arrivalPos="210.34" arrivalSpeed="14.38" duration="32.00" routeLength="430.89" waitingTime="0.00" waitingCount="0" stopTime="0.00" timeLoss="3.21" rerouteNo="0" devices="tripinfo_veh_3" vType="motorcycle" speedFactor="1.08" vaporized=""/>
    <tripinfo id="veh_2" depart="60.00" departLane="E1_0" departPos="5.10" departSpeed="0.00" departDelay="0.00" arrival="125.00" arrivalLane="E1.200_0" arrivalPos="210.34" arrivalSpeed="13.03" duration="65.00" routeLength="428.09" waitingTime="26.00" waitingCount="1" stopTime="0.00" timeLoss="34.37" rerouteNo="0" devices="tripinfo_veh_2" vType="car" speedFactor="1.01" vaporized=""/>
    <tripinfo id="veh_4" depart="120.00" departLane="E1_0" departPos="5.10" departSpeed="0.00" departDelay="0.00" arrival="193.00" arrivalLane="E1.200_0" arrivalPos="210.34" arrivalSpeed="13.48" duration="73.00" routeLength="428.09" waitingTime="35.00" waitingCount="1" stopTime="0.00" timeLoss="43.02" rerouteNo="0" devices="tripinfo_veh_4" vType="car" speedFactor="1.03" vaporized=""/>
    <tripinfo id="veh_5" depart="150.00" departLane="E1_0" departPos="5.10" departSpeed="0.00" departDelay="0.00" arrival="197.00" arrivalLane="E1.200_0" arrivalPos="210.34" arrivalSpeed="11.24" duration="47.00" routeLength="428.09" waitingTime="1.00" waitingCount="1" stopTime="0.00" timeLoss="9.60" rerouteNo="0" devices="tripinfo_veh_5" vType="car" speedFactor="0.83" vaporized=""/>
    <tripinfo id="veh_6" depart="180.00" departLane="E1_0" departPos="5.10" departSpeed="0.00" departDelay="0.00" arrival="214.00" arrivalLane="E1.200_0" arrivalPos="210.34" arrivalSpeed="14.01" duration="34.00" routeLength="428.09" waitingTime="0.00" waitingCount="0" stopTime="0.00" timeLoss="3.93" rerouteNo="0" devices="tripinfo_veh_6" vType="car" speedFactor="1.05" vaporized=""/>
    <tripinfo id="veh_7" depart="210.00" departLane="E1_0" departPos="2.30" departSpeed="0.00" departDelay="0.00" arrival="263.00" arrivalLane="E1.200_0" arrivalPos="210.34" arrivalSpeed="12.27" duration="53.00" routeLength="430.89" waitingTime="11.00" waitingCount="1" stopTime="0.00" timeLoss="17.19" rerouteNo="0" devices="tripinfo_veh_7" vType="motorcycle" speedFactor="0.89" vaporized=""/>
    <tripinfo id="veh_8" depart="240.00" departLane="E1_0" departPos="5.10" departSpeed="0.00" departDelay="0.00" arrival="278.00" arrivalLane="E1.200_0" arrivalPos="210.34" arrivalSpeed="11.82" duration="38.00" routeLength="428.09" waitingTime="0.00" waitingCount="0" stopTime="0.00" timeLoss="4.26" rerouteNo="0" devices="tripinfo_veh_8" vType="car" speedFactor="0.94" vaporized=""/>
    <tripinfo id="veh_9" depart="270.00" departLane="E1_0" departPos="5.10" departSpeed="0.00" departDelay="0.00" arrival="333.00" arrivalLane="E1.200_0" arrivalPos="210.34" arrivalSpeed="11.53" duration="63.00" routeLength="428.09" waitingTime="17.00" waitingCount="1" stopTime="0.00" timeLoss="26.14" rerouteNo="0" devices="tripinfo_veh_9" vType="car" speedFactor="0.86" vaporized=""/>
    <tripinfo id="veh_10" depart="300.00" departLane="E1_0" departPos="5.10" departSpeed="0.00" departDelay="0.00" arrival="334.00" arrivalLane="E1.200_0" arrivalPos="210.34" arrivalSpeed="14.38" duration="34.00" routeLength="428.09" waitingTime="0.00" waitingCount="0" stopTime="0.00" timeLoss="5.74" rerouteNo="0" devices="tripinfo_veh_10" vType="car" speedFactor="1.09" vaporized=""/>
    <tripinfo id="veh_12" depart="360.00" departLane="E1_0" departPos="5.10" departSpeed="0.00" departDelay="0.00" arrival="395.00" arrivalLane="E1.200_1" arrivalPos="210.34" arrivalSpeed="14.33" duration="35.00" routeLength="428.09" waitingTime="0.00" waitingCount="0" stopTime="0.00" timeLoss="5.03" rerouteNo="0" devices="tripinfo_veh_12" vType="car" speedFactor="1.05" vaporized=""/>
    <tripinfo id="veh_11" depart="330.00" departLane="E1_0" departPos="5.10" departSpeed="0.00" departDelay="0.00" arrival="398.00" arrivalLane="E1.200_0" arrivalPos="210.34" arrivalSpeed="13.04" duration="68.00" routeLength="428.09" waitingTime="27.00" waitingCount="1" stopTime="0.00" timeLoss="37.23" rerouteNo="0" devices="tripinfo_veh_11" vType="car" speedFactor="1.03" vaporized=""/>
    <tripinfo id="veh_13" depart="390.00" departLane="E1_0" departPos="5.10" departSpeed="0.00" departDelay="0.00" arrival="422.00" arrivalLane="E1.200_0" arrivalPos="210.34" arrivalSpeed="15.20" duration="32.00" routeLength="428.09" waitingTime="0.00" waitingCount="0" stopTime="0.00" timeLoss="4.36" rerouteNo="0" devices="tripinfo_veh_13" vType="car" speedFactor="1.12" vaporized=""/>
    <tripinfo id="veh_14" depart="420.00" departLane="E1_0" departPos="5.10" departSpeed="0.00" departDelay="0.00" arrival="466.00" arrivalLane="E1.200_0" arrivalPos="210.34" arrivalSpeed="13.49" duration="46.00" routeLength="428.09" waitingTime="6.00" waitingCount="1" stopTime="0.00" timeLoss="14.09" rerouteNo="0" devices="tripinfo_veh_14" vType="car" speedFactor="0.99" vaporized=""/>
    <tripinfo id="veh_15" depart="450.00" departLane="E1_0" departPos="5.10" departSpeed="0.00" departDelay="0.00" arrival="489.00" arrivalLane="E1.200_0" arrivalPos="210.34" arrivalSpeed="12.32" duration="39.00" routeLength="428.09" waitingTime="0.00" waitingCount="0" stopTime="0.00" timeLoss="4.90" rerouteNo="0" devices="tripinfo_veh_15" vType="car" speedFactor="0.93" vaporized=""/>
    <tripinfo id="veh_16" depart="480.00" departLane="E1_0" departPos="5.10" departSpeed="0.00" departDelay="0.00" arrival="537.00" arrivalLane="E1.200_0" arrivalPos="210.34" arrivalSpeed="11.34" duration="57.00" routeLength="428.09" waitingTime="11.00" waitingCount="1" stopTime="0.00" timeLoss="21.16" rerouteNo="0" devices="tripinfo_veh_16" vType="car" speedFactor="0.88" vaporized=""/>
    <tripinfo id="veh_17" depart="510.00" departLane="E1_0" departPos="5.10" departSpeed="0.00" departDelay="0.00" arrival="549.00" arrivalLane="E1.200_0" arrivalPos="210.34" arrivalSpeed="12.27" duration="39.00" routeLength="428.09" waitingTime="0.00" waitingCount="0" stopTime="0.00" timeLoss="5.35" rerouteNo="0" devices="tripinfo_veh_17" vType="car" speedFactor="0.94" vaporized=""/>
    <tripinfo id="veh_18" depart="540.00" departLane="E1_0" departPos="2.30" departSpeed="0.00" departDelay="0.00" arrival="601.00" arrivalLane="E1.200_0" arrivalPos="210.34" arrivalSpeed="12.81" duration="61.00" routeLength="430.89" waitingTime="21.00" waitingCount="1" stopTime="0.00" timeLoss="27.86" rerouteNo="0" devices="tripinfo_veh_18" vType="motorcycle" speedFactor="0.94" vaporized=""/>
    <tripinfo id="veh_19" depart="570.00" departLane="E1_0" departPos="5.10" departSpeed="0.00" departDelay="0.00" arrival="603.00" arrivalLane="E1.200_0" arrivalPos="210.34" arrivalSpeed="15.82" duration="33.00" routeLength="428.09" waitingTime="0.00" waitingCount="0" stopTime="0.00" timeLoss="5.82" rerouteNo="0" devices="tripinfo_veh_19" vType="car" speedFactor="1.16" vaporized=""/>
    <tripinfo id="veh_21" depart="630.00" departLane="E1_0" departPos="2.30" departSpeed="0.00" departDelay="0.00" arrival="669.00" arrivalLane="E1.200_1" arrivalPos="210.34" arrivalSpeed="14.02" duration="39.00" routeLength="430.89" waitingTime="1.00" waitingCount="1" stopTime="0.00" timeLoss="7.38" rerouteNo="0" devices="tripinfo_veh_21" vType="motorcycle" speedFactor="1.01" vaporized=""/>
    <tripinfo id="veh_20" depart="600.00" departLane="E1_0" departPos="5.10" departSpeed="0.00" departDelay="0.00" arrival="670.00" arrivalLane="E1.200_0" arrivalPos="210.34" arrivalSpeed="13.83" duration="70.00" routeLength="428.09" waitingTime="29.00" waitingCount="1" stopTime="0.00" timeLoss="38.77" rerouteNo="0" devices="tripinfo_veh_20" vType="car" speedFactor="1.02" vaporized=""/>
    <tripinfo id="veh_22" depart="660.00" departLane="E1_0" departPos="5.10" departSpeed="0.00" departDelay="0.00" arrival="697.00" arrivalLane="E1.200_0" arrivalPos="210.34" arrivalSpeed="12.31" duration="37.00" routeLength="428.09" waitingTime="0.00" waitingCount="0" stopTime="0.00" timeLoss="4.71" rerouteNo="0" devices="tripinfo_veh_22" vType="car" speedFactor="0.97" vaporized=""/>
    <tripinfo id="veh_23" depart="690.00" departLane="E1_0" departPos="2.30" departSpeed="0.00" departDelay="0.00" arrival="739.00" arrivalLane="E1.200_0" arrivalPos="210.34" arrivalSpeed="12.20" duration="49.00" routeLength="430.89" waitingTime="6.00" waitingCount="1" stopTime="0.00" timeLoss="13.55" rerouteNo="0" devices="tripinfo_veh_23" vType="motorcycle" speedFactor="0.89" vaporized=""/>
    <tripinfo id="veh_24" depart="720.00" departLane="E1_0" departPos="2.30" departSpeed="0.00" departDelay="0.00" arrival="761.00" arrivalLane="E1.200_0" arrivalPos="210.34" arrivalSpeed="10.63" duration="41.00" routeLength="430.89" waitingTime="0.00" waitingCount="0" stopTime="0.00" timeLoss="3.27" rerouteNo="0" devices="tripinfo_veh_24" vType="motorcycle" speedFactor="0.83" vaporized=""/>
    <tripinfo id="veh_25" depart="750.00" departLane="E1_0" departPos="5.10" departSpeed="0.00" departDelay="0.00" arrival="808.00" arrivalLane="E1.200_0" arrivalPos="210.34" arrivalSpeed="11.33" duration="58.00" routeLength="428.09" waitingTime="13.00" waitingCount="1" stopTime="0.00" timeLoss="22.02" rerouteNo="0" devices="tripinfo_veh_25" vType="car" speedFactor="0.87" vaporized=""/>
    <tripinfo id="veh_26" depart="780.00" departLane="E1_0" departPos="2.30" departSpeed="0.00" departDelay="0.00" arrival="817.00" arrivalLane="E1.200_0" arrivalPos="210.34" arrivalSpeed="11.98" duration="37.00" routeLength="430.89" waitingTime="0.00" waitingCount="0" stopTime="0.00" timeLoss="2.99" rerouteNo="0" devices="tripinfo_veh_26" vType="motorcycle" speedFactor="0.92" vaporized=""/>
    <tripinfo id="veh_28" depart="840.00" departLane="E1_0" departPos="2.30" departSpeed="0.00" departDelay="0.00" arrival="871.00" arrivalLane="E1.200_1" arrivalPos="210.34" arrivalSpeed="14.84" duration="31.00" routeLength="430.89" waitingTime="0.00" waitingCount="0" stopTime="0.00" timeLoss="3.12" rerouteNo="0" devices="tripinfo_veh_28" vType="motorcycle" speedFactor="1.13" vaporized=""/>
    <tripinfo id="veh_27" depart="810.00" departLane="E1_0" departPos="2.30" departSpeed="0.00" departDelay="0.00" arrival="874.00" arrivalLane="E1.200_0" arrivalPos="210.34" arrivalSpeed="12.38" duration="64.00" routeLength="430.89" waitingTime="23.00" waitingCount="1" stopTime="0.00" timeLoss="30.50" rerouteNo="0" devices="tripinfo_veh_27" vType="motorcycle" speedFactor="0.95" vaporized=""/>
    <tripinfo id="veh_30" depart="900.00" departLane="E1_0" departPos="2.30" departSpeed="0.00" departDelay="0.00" arrival="938.00" arrivalLane="E1.200_1" arrivalPos="210.34" arrivalSpeed="15.75" duration="38.00" routeLength="430.89" waitingTime="4.00" waitingCount="1" stopTime="0.00" timeLoss="11.55" rerouteNo="0" devices="tripinfo_veh_30" vType="motorcycle" speedFactor="1.18" vaporized=""/>
    <tripinfo id="veh_29" depart="870.00" departLane="E1_0" departPos="5.10" departSpeed="0.00" departDelay="0.00" arrival="943.00" arrivalLane="E1.200_0" arrivalPos="210.34" arrivalSpeed="12.11" duration="73.00" routeLength="428.09" waitingTime="30.00" waitingCount="1" stopTime="0.00" timeLoss="39.31" rerouteNo="0" devices="tripinfo_veh_29" vType="car" speedFactor="0.93" vaporized=""/>
    <tripinfo id="veh_31" depart="930.00" departLane="E1_0" departPos="5.10" departSpeed="0.00" departDelay="0.00" arrival="962.00" arrivalLane="E1.200_0" arrivalPos="210.34" arrivalSpeed="15.78" duration="32.00" routeLength="428.09" waitingTime="0.00" waitingCount="0" stopTime="0.00" timeLoss="4.61" rerouteNo="0" devices="tripinfo_veh_31" vType="car" speedFactor="1.15" vaporized=""/>
    <tripinfo id="veh_32" depart="960.00" departLane="E1_0" departPos="5.10" departSpeed="0.00" departDelay="0.00" arrival="1010.00" arrivalLane="E1.200_0" arrivalPos="210.34" arrivalSpeed="12.69" duration="50.00" routeLength="428.09" waitingTime="10.00" waitingCount="1" stopTime="0.00" timeLoss="18.68" rerouteNo="0" devices="tripinfo_veh_32" vType="car" speedFactor="1.01" vaporized=""/>
    <tripinfo id="veh_33" depart="990.00" departLane="E1_0" departPos="5.10" departSpeed="0.00" departDelay="0.00" arrival="1022.00" arrivalLane="E1.200_0" arrivalPos="210.34" arrivalSpeed="15.74" duration="32.00" routeLength="428.09" waitingTime="0.00" waitingCount="0" stopTime="0.00" timeLoss="4.81" rerouteNo="0" devices="tripinfo_veh_33" vType="car" speedFactor="1.17" vaporized=""/>
    <tripinfo id="veh_34" depart="1020.00" departLane="E1_0" departPos="2.30" departSpeed="0.00" departDelay="0.00" arrival="1077.00" arrivalLane="E1.200_0" arrivalPos="210.34" arrivalSpeed="13.07" duration="57.00" routeLength="430.89" waitingTime="18.00" waitingCount="1" stopTime="0.00" timeLoss="25.05" rerouteNo="0" devices="tripinfo_veh_34" vType="motorcycle" speedFactor="0.99" vaporized=""/>
    <tripinfo id="veh_35" depart="1050.00" departLane="E1_0" departPos="5.10" departSpeed="0.00" departDelay="0.00" arrival="1085.00" arrivalLane="E1.200_0" arrivalPos="210.34" arrivalSpeed="13.75" duration="35.00" routeLength="428.09" waitingTime="0.00" waitingCount="0" stopTime="0.00" timeLoss="4.15" rerouteNo="0" devices="tripinfo_veh_35" vType="car" speedFactor="1.02" vaporized=""/>
    <tripinfo id="veh_37" depart="1110.00" departLane="E1_0" departPos="5.10" departSpeed="0.00" departDelay="0.00" arrival="1141.00" arrivalLane="E1.200_1" arrivalPos="210.34" arrivalSpeed="16.24" duration="31.00" routeLength="428.09" waitingTime="0.00" waitingCount="0" stopTime="0.00" timeLoss="4.69" rerouteNo="0" devices="tripinfo_veh_37" vType="car" speedFactor="1.18" vaporized=""/>
    <tripinfo id="veh_36" depart="1080.00" departLane="E1_0" departPos="5.10" departSpeed="0.00" departDelay="0.00" arrival="1146.00" arrivalLane="E1.200_0" arrivalPos="210.34" arrivalSpeed="12.76" duration="66.00" routeLength="428.09" waitingTime="25.00" waitingCount="1" stopTime="0.00" timeLoss="33.97" rerouteNo="0" devices="tripinfo_veh_36" vType="car" speedFactor="0.97" vaporized=""/>
    <tripinfo id="veh_38" depart="1140.00" departLane="E1_0" departPos="5.10" departSpeed="0.00" departDelay="0.00" arrival="1213.00" arrivalLane="E1.200_0" arrivalPos="210.34" arrivalSpeed="14.21" duration="73.00" routeLength="428.09" waitingTime="37.00" waitingCount="1" stopTime="0.00" timeLoss="44.54" rerouteNo="0" devices="tripinfo_veh_38" vType="car" speedFactor="1.10" vaporized=""/>
    <tripinfo id="veh_39" depart="1170.00" departLane="E1_0" departPos="2.30" departSpeed="0.00" departDelay="0.00" arrival="1215.00" arrivalLane="E1.200_1" arrivalPos="210.34" arrivalSpeed="11.74" duration="45.00" routeLength="430.89" waitingTime="3.00" waitingCount="1" stopTime="0.00" timeLoss="9.69" rerouteNo="0" devices="tripinfo_veh_39" vType="motorcycle" speedFactor="0.90" vaporized=""/>
    <tripinfo id="veh_40" depart="1200.00" departLane="E1_0" departPos="5.10" departSpeed="0.00" departDelay="0.00" arrival="1235.00" arrivalLane="E1.200_0" arrivalPos="210.34" arrivalSpeed="13.38" duration="35.00" routeLength="428.09" waitingTime="0.00" waitingCount="0" stopTime="0.00" timeLoss="4.43" rerouteNo="0" devices="tripinfo_veh_40" vType="car" speedFactor="1.03" vaporized=""/>
    <tripinfo id="veh_41" depart="1230.00" departLane="E1_0" departPos="2.30" departSpeed="0.00" departDelay="0.00" arrival="1281.00" arrivalLane="E1.200_0" arrivalPos="210.34" arrivalSpeed="13.16" duration="51.00" routeLength="430.89" waitingTime="11.00" waitingCount="1" stopTime="0.00" timeLoss="18.54" rerouteNo="0" devices="tripinfo_veh_41" vType="motorcycle" speedFactor="0.96" vaporized=""/>
    <tripinfo id="veh_42" depart="1260.00" departLane="E1_0" departPos="2.30" departSpeed="0.00" departDelay="0.00" arrival="1292.00" arrivalLane="E1.200_0" arrivalPos="210.34" arrivalSpeed="14.34" duration="32.00" routeLength="430.89" waitingTime="0.00" waitingCount="0" stopTime="0.00" timeLoss="3.34" rerouteNo="0" devices="tripinfo_veh_42" vType="motorcycle" speedFactor="1.09" vaporized=""/>
    <tripinfo id="veh_43" depart="1290.00" departLane="E1_0" departPos="2.30" departSpeed="0.00" departDelay="0.00" arrival="1348.00" arrivalLane="E1.200_0" arrivalPos="210.34" arrivalSpeed="13.92" duration="58.00" routeLength="430.89" waitingTime="21.00" waitingCount="1" stopTime="0.00" timeLoss="27.58" rerouteNo="0" devices="tripinfo_veh_43" vType="motorcycle" speedFactor="1.04" vaporized=""/>
    <tripinfo id="veh_44" depart="1320.00" departLane="E1_0" departPos="5.10" departSpeed="0.00" departDelay="0.00" arrival="1354.00" arrivalLane="E1.200_0" arrivalPos="210.34" arrivalSpeed="14.03" duration="34.00" routeLength="428.09" waitingTime="0.00" waitingCount="0" stopTime="0.00" timeLoss="4.18" rerouteNo="0" devices="tripinfo_veh_44" vType="car" speedFactor="1.04" vaporized=""/>
    <tripinfo id="veh_46" depart="1380.00" departLane="E1_0" departPos="5.10" departSpeed="0.00" departDelay="0.00" arrival="1416.00" arrivalLane="E1.200_1" arrivalPos="210.34" arrivalSpeed="12.75" duration="36.00" routeLength="428.09" waitingTime="0.00" waitingCount="0" stopTime="0.00" timeLoss="4.36" rerouteNo="0" devices="tripinfo_veh_46" vType="car" speedFactor="1.00" vaporized=""/>
    <tripinfo id="veh_45" depart="1350.00" departLane="E1_0" departPos="5.10" departSpeed="0.00" departDelay="0.00" arrival="1417.00" arrivalLane="E1.200_0" arrivalPos="210.34" arrivalSpeed="14.36" duration="67.00" routeLength="428.09" waitingTime="28.00" waitingCount="1" stopTime="0.00" timeLoss="37.96" rerouteNo="0" devices="tripinfo_veh_45" vType="car" speedFactor="1.09" vaporized=""/>
    <tripinfo id="veh_48" depart="1440.00" departLane="E1_0" departPos="2.30" departSpeed="0.00" departDelay="0.00" arrival="1487.00" arrivalLane="E1.200_1" arrivalPos="210.34" arrivalSpeed="11.83" duration="47.00" routeLength="430.89" waitingTime="5.00" waitingCount="1" stopTime="0.00" timeLoss="11.16" rerouteNo="0" devices="tripinfo_veh_48" vType="motorcycle" speedFactor="0.88" vaporized=""/>
    <tripinfo id="veh_47" depart="1410.00" departLane="E1_0" departPos="5.10" departSpeed="0.00" departDelay="0.00" arrival="1488.00" arrivalLane="E1.200_0" arrivalPos="210.34" arrivalSpeed="11.50" duration="78.00" routeLength="428.09" waitingTime="34.00" waitingCount="1" stopTime="0.00" timeLoss="42.96" rerouteNo="0" devices="tripinfo_veh_47" vType="car" speedFactor="0.90" vaporized=""/>
    <tripinfo id="veh_49" depart="1470.00" departLane="E1_0" departPos="5.10" departSpeed="0.00" departDelay="0.00" arrival="1511.00" arrivalLane="E1.200_0" arrivalPos="210.34" arrivalSpeed="10.68" duration="41.00" routeLength="428.09" waitingTime="0.00" waitingCount="0" stopTime="0.00" timeLoss="4.38" rerouteNo="0" devices="tripinfo_veh_49" vType="car" speedFactor="0.85" vaporized=""/>
    <tripinfo id="veh_50" depart="1500.00" departLane="E1_0" departPos="5.10" departSpeed="0.00" departDelay="0.00" arrival="1556.00" arrivalLane="E1.200_0" arrivalPos="210.34" arrivalSpeed="11.14" duration="56.00" routeLength="428.09" waitingTime="10.00" waitingCount="1" stopTime="0.00" timeLoss="19.92" rerouteNo="0" devices="tripinfo_veh_50" vType="car" speedFactor="0.85" vaporized=""/>
    <tripinfo id="veh_51" depart="1530.00" departLane="E1_0" departPos="5.10" departSpeed="0.00" departDelay="0.00" arrival="1561.00" arrivalLane="E1.200_0" arrivalPos="210.34" arrivalSpeed="15.09" duration="31.00" routeLength="428.09" waitingTime="0.00" waitingCount="0" stopTime="0.00" timeLoss="4.48" rerouteNo="0" devices="tripinfo_veh_51" vType="car" speedFactor="1.17" vaporized=""/>
    <tripinfo id="veh_52" depart="1560.00" departLane="E1_0" departPos="5.10" departSpeed="0.00" departDelay="0.00" arrival="1621.00" arrivalLane="E1.200_0" arrivalPos="210.34" arrivalSpeed="14.04" duration="61.00" routeLength="428.09" waitingTime="20.00" waitingCount="1" stopTime="0.00" timeLoss="30.29" rerouteNo="0" devices="tripinfo_veh_52" vType="car" speedFactor="1.02" vaporized=""/>
    <tripinfo id="veh_53" depart="1590.00" departLane="E1_0" departPos="5.10" departSpeed="0.00" departDelay="0.00" arrival="1623.00" arrivalLane="E1.200_0" arrivalPos="210.34" arrivalSpeed="15.11" duration="33.00" routeLength="428.09" waitingTime="0.00" waitingCount="0" stopTime="0.00" timeLoss="4.74" rerouteNo="0" devices="tripinfo_veh_53" vType="car" speedFactor="1.10" vaporized=""/>
    <tripinfo id="veh_55" depart="1650.00" departLane="E1_0" departPos="2.30" departSpeed="0.00" departDelay="0.00" arrival="1689.00" arrivalLane="E1.200_1" arrivalPos="210.34" arrivalSpeed="13.26" duration="39.00" routeLength="430.89" waitingTime="0.00" waitingCount="0" stopTime="0.00" timeLoss="7.06" rerouteNo="0" devices="tripinfo_veh_55" vType="motorcycle" speedFactor="1.00" vaporized=""/>
    <tripinfo id="veh_54" depart="1620.00" departLane="E1_0" departPos="5.10" departSpeed="0.00" departDelay="0.00" arrival="1691.00" arrivalLane="E1.200_0" arrivalPos="210.34" arrivalSpeed="12.82" duration="71.00" routeLength="428.09" waitingTime="28.00" waitingCount="1" stopTime="0.00" timeLoss="39.39" rerouteNo="0" devices="tripinfo_veh_54" vType="car" speedFactor="1.00" vaporized=""/>
    <tripinfo id="veh_56" depart="1680.00" departLane="E1_0" departPos="5.10" departSpeed="0.00" departDelay="0.00" arrival="1719.00" arrivalLane="E1.200_0" arrivalPos="210.34" arrivalSpeed="11.85" duration="39.00" routeLength="428.09" waitingTime="0.00" waitingCount="0" stopTime="0.00" timeLoss="4.47" rerouteNo="0" devices="tripinfo_veh_56" vType="car" speedFactor="0.90" vaporized=""/>
    <tripinfo id="veh_57" depart="1710.00" departLane="E1_0" departPos="2.30" departSpeed="0.00" departDelay="0.00" arrival="1755.00" arrivalLane="E1.200_0" arrivalPos="210.34" arrivalSpeed="15.22" duration="45.00" routeLength="430.89" waitingTime="10.00" waitingCount="1" stopTime="0.00" timeLoss="16.98" rerouteNo="0" devices="tripinfo_veh_57" vType="motorcycle" speedFactor="1.14" vaporized=""/>
    <tripinfo id="veh_58" depart="1740.00" departLane="E1_0" departPos="5.10" departSpeed="0.00" departDelay="0.00" arrival="1775.00" arrivalLane="E1.200_0" arrivalPos="210.34" arrivalSpeed="13.43" duration="35.00" routeLength="428.09" waitingTime="0.00" waitingCount="0" stopTime="0.00" timeLoss="4.56" rerouteNo="0" devices="tripinfo_veh_58" vType="car" speedFactor="1.02" vaporized=""/>
    <tripinfo id="veh_59" depart="1770.00" departLane="E1_0" departPos="2.30" departSpeed="0.00" departDelay="0.00" arrival="1825.00" arrivalLane="E1.200_0" arrivalPos="210.34" arrivalSpeed="13.26" duration="55.00" routeLength="430.89" waitingTime="15.00" waitingCount="1" stopTime="0.00" timeLoss="22.66" rerouteNo="0" devices="tripinfo_veh_59" vType="motorcycle" speedFactor="0.97" vaporized=""/>
    <tripinfo id="veh_210" depart="1800.00" departLane="E1_0" departPos="5.10" departSpeed="0.00" departDelay="0.00" arrival="1833.00" arrivalLane="E1.200_0" arrivalPos="210.34" arrivalSpeed="14.66" duration="33.00" routeLength="428.09" waitingTime="0.00" waitingCount="0" stopTime="0.00" timeLoss="4.32" rerouteNo="0" devices="tripinfo_veh_210" vType="car" speedFactor="1.08" vaporized=""/>
    <tripinfo id="veh_211" depart="1815.00" departLane="E1_0" departPos="2.30" departSpeed="0.00" departDelay="0.00" arrival="1846.00" arrivalLane="E1.200_0" arrivalPos="210.34" arrivalSpeed="15.30" duration="31.00" routeLength="430.89" waitingTime="0.00" waitingCount="0" stopTime="0.00" timeLoss="3.29" rerouteNo="0" devices="tripinfo_veh_211" vType="motorcycle" speedFactor="1.12" vaporized=""/>
    <tripinfo id="veh_212" depart="1830.00" departLane="E1_0" departPos="5.10" departSpeed="0.00" departDelay="0.00" arrival="1893.00" arrivalLane="E1.200_0" arrivalPos="210.34" arrivalSpeed="13.81" duration="63.00" routeLength="428.09" waitingTime="21.00" waitingCount="1" stopTime="0.00" timeLoss="32.50" rerouteNo="0" devices="tripinfo_veh_212" vType="car" speedFactor="1.02" vaporized=""/>
    <tripinfo id="veh_213" depart="1845.00" departLane="E1_0" departPos="5.10" departSpeed="0.00" departDelay="0.00" arrival="1894.00" arrivalLane="E1.200_1" arrivalPos="210.34" arrivalSpeed="12.90" duration="49.00" routeLength="428.09" waitingTime="8.00" waitingCount="1" stopTime="0.00" timeLoss="17.50" rerouteNo="0" devices="tripinfo_veh_213" vType="car" speedFactor="0.99" vaporized=""/>
    <tripinfo id="veh_214" depart="1860.00" departLane="E1_0" departPos="5.10" departSpeed="0.00" departDelay="0.00" arrival="1898.00" arrivalLane="E1.200_0" arrivalPos="210.34" arrivalSpeed="12.03" duration="38.00" routeLength="428.09" waitingTime="0.00" waitingCount="0" stopTime="0.00" timeLoss="4.85" rerouteNo="0" devices="tripinfo_veh_214" vType="car" speedFactor="0.94" vaporized=""/>
    <tripinfo id="veh_215" depart="1872.00" departLane="E1_0" departPos="5.10" departSpeed="0.00" departDelay="0.60" arrival="1911.00" arrivalLane="E1.200_0" arrivalPos="210.34" arrivalSpeed="11.68" duration="39.00" routeLength="428.09" waitingTime="0.00" waitingCount="0" stopTime="0.00" timeLoss="3.89" rerouteNo="0" devices="tripinfo_veh_215" vType="car" speedFactor="0.88" vaporized=""/>
    <tripinfo id="veh_216" depart="1883.00" departLane="E1_0" departPos="5.10" departSpeed="0.00" departDelay="0.10" arrival="1922.00" arrivalLane="E1.200_0" arrivalPos="210.34" arrivalSpeed="11.63" duration="39.00" routeLength="428.09" waitingTime="0.00" waitingCount="0" stopTime="0.00" timeLoss="4.36" rerouteNo="0" devices="tripinfo_veh_216" vType="car" speedFactor="0.91" vaporized=""/>
    <tripinfo id="veh_218" depart="1906.00" departLane="E1_0" departPos="2.30" departSpeed="0.00" departDelay="0.20" arrival="1960.00" arrivalLane="E1.200_1" arrivalPos="210.34" arrivalSpeed="13.79" duration="54.00" routeLength="430.89" waitingTime="16.00" waitingCount="1" stopTime="0.00" timeLoss="23.62" rerouteNo="0" devices="tripinfo_veh_218" vType="motorcycle" speedFactor="1.04" vaporized=""/>
    <tripinfo id="veh_217" depart="1895.00" departLane="E1_0" departPos="2.30" departSpeed="0.00" departDelay="0.70" arrival="1962.00" arrivalLane="E1.200_0" arrivalPos="210.34" arrivalSpeed="12.15" duration="67.00" routeLength="430.89" waitingTime="25.00" waitingCount="1" stopTime="0.00" timeLoss="32.52" rerouteNo="0" devices="tripinfo_veh_217" vType="motorcycle" speedFactor="0.91" vaporized=""/>
    <tripinfo id="veh_219" depart="1918.00" departLane="E1_0" departPos="2.30" departSpeed="0.00" departDelay="0.80" arrival="1963.00" arrivalLane="E1.200_0" arrivalPos="210.34" arrivalSpeed="13.75" duration="45.00" routeLength="430.89" waitingTime="5.00" waitingCount="1" stopTime="0.00" timeLoss="14.46" rerouteNo="0" devices="tripinfo_veh_219" vType="motorcycle" speedFactor="1.02" vaporized=""/>
    <tripinfo id="veh_220" depart="1920.00" departLane="E1_0" departPos="5.10" departSpeed="0.00" departDelay="0.00" arrival="1963.00" arrivalLane="E1.200_1" arrivalPos="210.34" arrivalSpeed="13.27" duration="43.00" routeLength="428.09" waitingTime="1.00" waitingCount="1" stopTime="0.00" timeLoss="12.36" rerouteNo="0" devices="tripinfo_veh_220" vType="car" speedFactor="1.02" vaporized=""/>
    <tripinfo id="veh_221" depart="1930.00" departLane="E1_0" departPos="5.10" departSpeed="0.00" departDelay="0.70" arrival="1966.00" arrivalLane="E1.200_0" arrivalPos="210.34" arrivalSpeed="13.20" duration="36.00" routeLength="428.09" waitingTime="0.00" waitingCount="0" stopTime="0.00" timeLoss="4.26" rerouteNo="0" devices="tripinfo_veh_221" vType="car" speedFactor="0.97" vaporized=""/>
    <tripinfo id="veh_222" depart="1939.00" departLane="E1_0" departPos="2.30" departSpeed="0.00" departDelay="0.50" arrival="1975.00" arrivalLane="E1.200_0" arrivalPos="210.34" arrivalSpeed="12.88" duration="36.00" routeLength="430.89" waitingTime="0.00" waitingCount="0" stopTime="0.00" timeLoss="2.93" rerouteNo="0" devices="tripinfo_veh_222" vType="motorcycle" speedFactor="0.94" vaporized=""/>