<?xml version="1.0" encoding="UTF-8"?>

<!-- generated on 2025-10-07 19:39:24 by Eclipse SUMO sumo Version 1.24.0
<sumoConfiguration xmlns:xsi="http://www.w3.org/2001/XMLSchema-instance" xsi:noNamespaceSchemaLocation="http://sumo.dlr.de/xsd/sumoConfiguration.xsd">

    <input>
        <net-file value="scenario_results/../../demo.net.xml"/>
        <route-files value="scenario_results/dynamic_mixed_traffic_adaptive.rou.xml"/>
    </input>

    <output>
        <tripinfo-output value="scenario_results/tripinfo_adaptive.xml"/>
    </output>

    <time>
        <begin value="0"/>
        <end value="10800"/>
        <step-length value="1"/>
    </time>

    <processing>
        <time-to-teleport value="300"/>
    </processing>

    <report>
        <no-warnings value="true"/>
        <no-step-log value="true"/>
    </report>

    <traci_server>
        <remote-port value="50506"/>
    </traci_server>

</sumoConfiguration>
-->

<tripinfos xmlns:xsi="http://www.w3.org/2001/XMLSchema-instance" xsi:noNamespaceSchemaLocation="http://sumo.dlr.de/xsd/tripinfo_file.xsd">
    <tripinfo id="veh_0" depart="0.00" departLane="E1_0" departPos="5.10" departSpeed="0.00" departDelay="0.00" arrival="55.00" arrivalLane="E1.200_0" arrivalPos="210.34" arrivalSpeed="13.55" duration="55.00" routeLength="428.09" waitingTime="15.00" waitingCount="1" stopTime="0.00" timeLoss="25.37" rerouteNo="0" devices="tripinfo_veh_0" vType="car" speedFactor="1.06" vaporized=""/>
    <tripinfo id="veh_1" depart="30.00" departLane="E1_0" departPos="5.10" departSpeed="0.00" departDelay="0.00" arrival="68.00" arrivalLane="E1.200_0" arrivalPos="210.34" arrivalSpeed="12.52" duration="38.00" routeLength="428.09" waitingTime="0.00" waitingCount="0" stopTime="0.00" timeLoss="4.45" rerouteNo="0" devices="tripinfo_veh_1" vType="car" speedFactor="0.94" vaporized=""/>
    <tripinfo id="veh_2" depart="60.00" departLane="E1_0" departPos="2.30" departSpeed="0.00" departDelay="0.00" arrival="186.00" arrivalLane="E1.200_0" arrivalPos="210.34" arrivalSpeed="13.97" duration="126.00" routeLength="430.89" waitingTime="88.00" waitingCount="1" stopTime="0.00" timeLoss="95.02" rerouteNo="0" devices="tripinfo_veh_2" vType="motorcycle" speedFactor="1.01" vaporized=""/>
    <tripinfo id="veh_3" depart="90.00" departLane="E1_0" departPos="5.10" departSpeed="0.00" departDelay="0.00" arrival="188.00" arrivalLane="E1.200_0" arrivalPos="210.34" arrivalSpeed="14.47" duration="98.00" routeLength="428.09" waitingTime="56.00" waitingCount="1" stopTime="0.00" timeLoss="68.83" rerouteNo="0" devices="tripinfo_veh_3" vType="car" speedFactor="1.08" vaporized=""/>
    <tripinfo id="veh_4" depart="120.00" departLane="E1_0" departPos="5.10" departSpeed="0.00" departDelay="0.00" arrival="190.00" arrivalLane="E1.200_0" arrivalPos="210.34" arrivalSpeed="13.49" duration="70.00" routeLength="428.09" waitingTime="29.00" waitingCount="1" stopTime="0.00" timeLoss="39.18" rerouteNo="0" devices="tripinfo_veh_4" vType="car" speedFactor="1.03" vaporized=""/>
    <tripinfo id="veh_5" depart="150.00" departLane="E1_0" departPos="2.30" departSpeed="0.00" departDelay="0.00" arrival="192.00" arrivalLane="E1.200_1" arrivalPos="210.34" arrivalSpeed="11.27" duration="42.00" routeLength="430.89" waitingTime="0.00" waitingCount="0" stopTime="0.00" timeLoss="4.63" rerouteNo="0" devices="tripinfo_veh_5" vType="motorcycle" speedFactor="0.83" vaporized=""/>
    <tripinfo id="veh_6" depart="180.00" departLane="E1_0" departPos="5.10" departSpeed="0.00" departDelay="0.00" arrival="215.00" arrivalLane="E1.200_0" arrivalPos="210.34" arrivalSpeed="13.47" duration="35.00" routeLength="428.09" waitingTime="0.00" waitingCount="0" stopTime="0.00" timeLoss="5.20" rerouteNo="0" devices="tripinfo_veh_6" vType="car" speedFactor="1.05" vaporized=""/>
    <tripinfo id="veh_8" depart="240.00" departLane="E1_0" departPos="5.10" departSpeed="0.00" departDelay="0.00" arrival="321.00" arrivalLane="E1.200_1" arrivalPos="210.34" arrivalSpeed="12.98" duration="81.00" routeLength="428.09" waitingTime="37.00" waitingCount="1" stopTime="0.00" timeLoss="47.21" rerouteNo="0" devices="tripinfo_veh_8" vType="car" speedFactor="0.94" vaporized=""/>
    <tripinfo id="veh_7" depart="210.00" departLane="E1_0" departPos="5.10" departSpeed="0.00" departDelay="0.00" arrival="322.00" arrivalLane="E1.200_0" arrivalPos="210.34" arrivalSpeed="11.59" duration="112.00" routeLength="428.09" waitingTime="66.00" waitingCount="1" stopTime="0.00" timeLoss="76.46" rerouteNo="0" devices="tripinfo_veh_7" vType="car" speedFactor="0.89" vaporized=""/>
    <tripinfo id="veh_9" depart="270.00" departLane="E1_0" departPos="5.10" departSpeed="0.00" departDelay="0.00" arrival="324.00" arrivalLane="E1.200_0" arrivalPos="210.34" arrivalSpeed="11.53" duration="54.00" routeLength="428.09" waitingTime="9.00" waitingCount="1" stopTime="0.00" timeLoss="17.77" rerouteNo="0" devices="tripinfo_veh_9" vType="car" speedFactor="0.86" vaporized=""/>
    <tripinfo id="veh_10" depart="300.00" departLane="E1_0" departPos="5.10" departSpeed="0.00" departDelay="0.00" arrival="333.00" arrivalLane="E1.200_0" arrivalPos="210.34" arrivalSpeed="14.50" duration="33.00" routeLength="428.09" waitingTime="0.00" waitingCount="0" stopTime="0.00" timeLoss="4.23" rerouteNo="0" devices="tripinfo_veh_10" vType="car" speedFactor="1.09" vaporized=""/>
    <tripinfo id="veh_11" depart="330.00" departLane="E1_0" departPos="2.30" departSpeed="0.00" departDelay="0.00" arrival="450.00" arrivalLane="E1.200_0" arrivalPos="210.34" arrivalSpeed="13.35" duration="120.00" routeLength="430.89" waitingTime="82.00" waitingCount="1" stopTime="0.00" timeLoss="89.65" rerouteNo="0" devices="tripinfo_veh_11" vType="motorcycle" speedFactor="1.03" vaporized=""/>
    <tripinfo id="veh_12" depart="360.00" departLane="E1_0" departPos="5.10" departSpeed="0.00" departDelay="0.00" arrival="451.00" arrivalLane="E1.200_1" arrivalPos="210.34" arrivalSpeed="13.25" duration="91.00" routeLength="428.09" waitingTime="50.00" waitingCount="1" stopTime="0.00" timeLoss="61.12" rerouteNo="0" devices="tripinfo_veh_12" vType="car" speedFactor="1.05" vaporized=""/>
    <tripinfo id="veh_13" depart="390.00" departLane="E1_0" departPos="5.10" departSpeed="0.00" departDelay="0.00" arrival="452.00" arrivalLane="E1.200_0" arrivalPos="210.34" arrivalSpeed="14.86" duration="62.00" routeLength="428.09" waitingTime="22.00" waitingCount="1" stopTime="0.00" timeLoss="34.02" rerouteNo="0" devices="tripinfo_veh_13" vType="car" speedFactor="1.12" vaporized=""/>
    <tripinfo id="veh_14" depart="420.00" departLane="E1_0" departPos="2.30" departSpeed="0.00" departDelay="0.00" arrival="455.00" arrivalLane="E1.200_0" arrivalPos="210.34" arrivalSpeed="13.16" duration="35.00" routeLength="430.89" waitingTime="0.00" waitingCount="0" stopTime="0.00" timeLoss="3.15" rerouteNo="0" devices="tripinfo_veh_14" vType="motorcycle" speedFactor="0.99" vaporized=""/>
    <tripinfo id="veh_15" depart="450.00" departLane="E1_0" departPos="2.30" departSpeed="0.00" departDelay="0.00" arrival="584.00" arrivalLane="E1.200_0" arrivalPos="210.34" arrivalSpeed="12.02" duration="134.00" routeLength="430.89" waitingTime="94.00" waitingCount="1" stopTime="0.00" timeLoss="100.18" rerouteNo="0" devices="tripinfo_veh_15" vType="motorcycle" speedFactor="0.93" vaporized=""/>
    <tripinfo id="veh_16" depart="480.00" departLane="E1_0" departPos="2.30" departSpeed="0.00" departDelay="0.00" arrival="585.00" arrivalLane="E1.200_1" arrivalPos="210.34" arrivalSpeed="11.78" duration="105.00" routeLength="430.89" waitingTime="63.00" waitingCount="1" stopTime="0.00" timeLoss="69.31" rerouteNo="0" devices="tripinfo_veh_16" vType="motorcycle" speedFactor="0.88" vaporized=""/>
    <tripinfo id="veh_17" depart="510.00" departLane="E1_0" departPos="2.30" departSpeed="0.00" departDelay="0.00" arrival="586.00" arrivalLane="E1.200_0" arrivalPos="210.34" arrivalSpeed="12.44" duration="76.00" routeLength="430.89" waitingTime="35.00" waitingCount="1" stopTime="0.00" timeLoss="42.24" rerouteNo="0" devices="tripinfo_veh_17" vType="motorcycle" speedFactor="0.94" vaporized=""/>
    <tripinfo id="veh_18" depart="540.00" departLane="E1_0" departPos="5.10" departSpeed="0.00" departDelay="0.00" arrival="587.00" arrivalLane="E1.200_1" arrivalPos="210.34" arrivalSpeed="12.58" duration="47.00" routeLength="428.09" waitingTime="3.00" waitingCount="1" stopTime="0.00" timeLoss="13.34" rerouteNo="0" devices="tripinfo_veh_18" vType="car" speedFactor="0.94" vaporized=""/>
    <tripinfo id="veh_19" depart="570.00" departLane="E1_0" departPos="5.10" departSpeed="0.00" departDelay="0.00" arrival="602.00" arrivalLane="E1.200_0" arrivalPos="210.34" arrivalSpeed="15.87" duration="32.00" routeLength="428.09" waitingTime="0.00" waitingCount="0" stopTime="0.00" timeLoss="4.48" rerouteNo="0" devices="tripinfo_veh_19" vType="car" speedFactor="1.16" vaporized=""/>
    <tripinfo id="veh_21" depart="630.00" departLane="E1_0" departPos="2.30" departSpeed="0.00" departDelay="0.00" arrival="715.00" arrivalLane="E1.200_1" arrivalPos="210.34" arrivalSpeed="13.23" duration="85.00" routeLength="430.89" waitingTime="46.00" waitingCount="1" stopTime="0.00" timeLoss="53.47" rerouteNo="0" devices="tripinfo_veh_21" vType="motorcycle" speedFactor="1.01" vaporized=""/>
    <tripinfo id="veh_20" depart="600.00" departLane="E1_0" departPos="5.10" departSpeed="0.00" departDelay="0.00" arrival="717.00" arrivalLane="E1.200_0" arrivalPos="210.34" arrivalSpeed="13.43" duration="117.00" routeLength="428.09" waitingTime="75.00" waitingCount="1" stopTime="0.00" timeLoss="85.88" rerouteNo="0" devices="tripinfo_veh_20" vType="car" speedFactor="1.02" vaporized=""/>
    <tripinfo id="veh_22" depart="660.00" departLane="E1_0" departPos="2.30" departSpeed="0.00" departDelay="0.00" arrival="717.00" arrivalLane="E1.200_1" arrivalPos="210.34" arrivalSpeed="13.37" duration="57.00" routeLength="430.89" waitingTime="16.00" waitingCount="1" stopTime="0.00" timeLoss="24.48" rerouteNo="0" devices="tripinfo_veh_22" vType="motorcycle" speedFactor="0.97" vaporized=""/>
    <tripinfo id="veh_23" depart="690.00" departLane="E1_0" departPos="5.10" departSpeed="0.00" departDelay="0.00" arrival="730.00" arrivalLane="E1.200_0" arrivalPos="210.34" arrivalSpeed="11.46" duration="40.00" routeLength="428.09" waitingTime="0.00" waitingCount="0" stopTime="0.00" timeLoss="4.53" rerouteNo="0" devices="tripinfo_veh_23" vType="car" speedFactor="0.89" vaporized=""/>
    <tripinfo id="veh_24" depart="720.00" departLane="E1_0" departPos="2.30" departSpeed="0.00" departDelay="0.00" arrival="850.00" arrivalLane="E1.200_0" arrivalPos="210.34" arrivalSpeed="10.44" duration="130.00" routeLength="430.89" waitingTime="85.00" waitingCount="1" stopTime="0.00" timeLoss="92.00" rerouteNo="0" devices="tripinfo_veh_24" vType="motorcycle" speedFactor="0.83" vaporized=""/>
    <tripinfo id="veh_25" depart="750.00" departLane="E1_0" departPos="5.10" departSpeed="0.00" departDelay="0.00" arrival="850.00" arrivalLane="E1.200_1" arrivalPos="210.34" arrivalSpeed="11.16" duration="100.00" routeLength="428.09" waitingTime="55.00" waitingCount="1" stopTime="0.00" timeLoss="64.35" rerouteNo="0" devices="tripinfo_veh_25" vType="car" speedFactor="0.87" vaporized=""/>
    <tripinfo id="veh_26" depart="780.00" departLane="E1_0" departPos="5.10" departSpeed="0.00" departDelay="0.00" arrival="852.00" arrivalLane="E1.200_0" arrivalPos="210.34" arrivalSpeed="11.54" duration="72.00" routeLength="428.09" waitingTime="27.00" waitingCount="1" stopTime="0.00" timeLoss="37.60" rerouteNo="0" devices="tripinfo_veh_26" vType="car" speedFactor="0.92" vaporized=""/>
    <tripinfo id="veh_27" depart="810.00" departLane="E1_0" departPos="2.30" departSpeed="0.00" departDelay="0.00" arrival="852.00" arrivalLane="E1.200_1" arrivalPos="210.34" arrivalSpeed="12.31" duration="42.00" routeLength="430.89" waitingTime="0.00" waitingCount="0" stopTime="0.00" timeLoss="8.65" rerouteNo="0" devices="tripinfo_veh_27" vType="motorcycle" speedFactor="0.95" vaporized=""/>
    <tripinfo id="veh_28" depart="840.00" departLane="E1_0" departPos="2.30" departSpeed="0.00" departDelay="0.00" arrival="871.00" arrivalLane="E1.200_0" arrivalPos="210.34" arrivalSpeed="14.84" duration="31.00" routeLength="430.89" waitingTime="0.00" waitingCount="0" stopTime="0.00" timeLoss="3.35" rerouteNo="0" devices="tripinfo_veh_28" vType="motorcycle" speedFactor="1.13" vaporized=""/>
    <tripinfo id="veh_30" depart="900.00" departLane="E1_0" departPos="5.10" departSpeed="0.00" departDelay="0.00" arrival="978.00" arrivalLane="E1.200_1" arrivalPos="210.34" arrivalSpeed="15.66" duration="78.00" routeLength="428.09" waitingTime="39.00" waitingCount="1" stopTime="0.00" timeLoss="51.34" rerouteNo="0" devices="tripinfo_veh_30" vType="car" speedFactor="1.18" vaporized=""/>
    <tripinfo id="veh_29" depart="870.00" departLane="E1_0" departPos="2.30" departSpeed="0.00" departDelay="0.00" arrival="980.00" arrivalLane="E1.200_0" arrivalPos="210.34" arrivalSpeed="12.79" duration="110.00" routeLength="430.89" waitingTime="70.00" waitingCount="1" stopTime="0.00" timeLoss="76.09" rerouteNo="0" devices="tripinfo_veh_29" vType="motorcycle" speedFactor="0.93" vaporized=""/>
    <tripinfo id="veh_31" depart="930.00" departLane="E1_0" departPos="5.10" departSpeed="0.00" departDelay="0.00" arrival="981.00" arrivalLane="E1.200_0" arrivalPos="210.34" arrivalSpeed="13.65" duration="51.00" routeLength="428.09" waitingTime="10.00" waitingCount="1" stopTime="0.00" timeLoss="24.23" rerouteNo="0" devices="tripinfo_veh_31" vType="car" speedFactor="1.15" vaporized=""/>
    <tripinfo id="veh_32" depart="960.00" departLane="E1_0" departPos="5.10" departSpeed="0.00" departDelay="0.00" arrival="996.00" arrivalLane="E1.200_0" arrivalPos="210.34" arrivalSpeed="13.65" duration="36.00" routeLength="428.09" waitingTime="0.00" waitingCount="0" stopTime="0.00" timeLoss="4.48" rerouteNo="0" devices="tripinfo_veh_32" vType="car" speedFactor="1.01" vaporized=""/>
    <tripinfo id="veh_33" depart="990.00" departLane="E1_0" departPos="5.10" departSpeed="0.00" departDelay="0.00" arrival="1110.00" arrivalLane="E1.200_0" arrivalPos="210.34" arrivalSpeed="15.53" duration="120.00" routeLength="428.09" waitingTime="81.00" waitingCount="1" stopTime="0.00" timeLoss="93.25" rerouteNo="0" devices="tripinfo_veh_33" vType="car" speedFactor="1.17" vaporized=""/>
    <tripinfo id="veh_34" depart="1020.00" departLane="E1_0" departPos="5.10" departSpeed="0.00" departDelay="0.00" arrival="1111.00" arrivalLane="E1.200_0" arrivalPos="210.34" arrivalSpeed="12.83" duration="91.00" routeLength="428.09" waitingTime="50.00" waitingCount="1" stopTime="0.00" timeLoss="59.97" rerouteNo="0" devices="tripinfo_veh_34" vType="car" speedFactor="0.99" vaporized=""/>
    <tripinfo id="veh_35" depart="1050.00" departLane="E1_0" departPos="5.10" departSpeed="0.00" departDelay="0.00" arrival="1114.00" arrivalLane="E1.200_0" arrivalPos="210.34" arrivalSpeed="14.07" duration="64.00" routeLength="428.09" waitingTime="23.00" waitingCount="1" stopTime="0.00" timeLoss="33.16" rerouteNo="0" devices="tripinfo_veh_35" vType="car" speedFactor="1.02" vaporized=""/>
    <tripinfo id="veh_36" depart="1080.00" departLane="E1_0" departPos="2.30" departSpeed="0.00" departDelay="0.00" arrival="1116.00" arrivalLane="E1.200_1" arrivalPos="210.34" arrivalSpeed="12.60" duration="36.00" routeLength="430.89" waitingTime="0.00" waitingCount="0" stopTime="0.00" timeLoss="3.20" rerouteNo="0" devices="tripinfo_veh_36" vType="motorcycle" speedFactor="0.97" vaporized=""/>
    <tripinfo id="veh_37" depart="1110.00" departLane="E1_0" departPos="5.10" departSpeed="0.00" departDelay="0.00" arrival="1242.00" arrivalLane="E1.200_0" arrivalPos="210.34" arrivalSpeed="15.14" duration="132.00" routeLength="428.09" waitingTime="94.00" waitingCount="1" stopTime="0.00" timeLoss="105.14" rerouteNo="0" devices="tripinfo_veh_37" vType="car" speedFactor="1.18" vaporized=""/>
    <tripinfo id="veh_38" depart="1140.00" departLane="E1_0" departPos="5.10" departSpeed="0.00" departDelay="0.00" arrival="1242.00" arrivalLane="E1.200_1" arrivalPos="210.34" arrivalSpeed="14.40" duration="102.00" routeLength="428.09" waitingTime="64.00" waitingCount="1" stopTime="0.00" timeLoss="74.00" rerouteNo="0" devices="tripinfo_veh_38" vType="car" speedFactor="1.10" vaporized=""/>
    <tripinfo id="veh_40" depart="1200.00" departLane="E1_0" departPos="5.10" departSpeed="0.00" departDelay="0.00" arrival="1245.00" arrivalLane="E1.200_1" arrivalPos="210.34" arrivalSpeed="13.61" duration="45.00" routeLength="428.09" waitingTime="5.00" waitingCount="1" stopTime="0.00" timeLoss="14.88" rerouteNo="0" devices="tripinfo_veh_40" vType="car" speedFactor="1.03" vaporized=""/>
    <tripinfo id="veh_39" depart="1170.00" departLane="E1_0" departPos="5.10" departSpeed="0.00" departDelay="0.00" arrival="1247.00" arrivalLane="E1.200_0" arrivalPos="210.34" arrivalSpeed="12.22" duration="77.00" routeLength="428.09" waitingTime="33.00" waitingCount="1" stopTime="0.00" timeLoss="42.60" rerouteNo="0" devices="tripinfo_veh_39" vType="car" speedFactor="0.90" vaporized=""/>
    <tripinfo id="veh_41" depart="1230.00" departLane="E1_0" departPos="5.10" departSpeed="0.00" departDelay="0.00" arrival="1267.00" arrivalLane="E1.200_0" arrivalPos="210.34" arrivalSpeed="12.34" duration="37.00" routeLength="428.09" waitingTime="0.00" waitingCount="0" stopTime="0.00" timeLoss="4.79" rerouteNo="0" devices="tripinfo_veh_41" vType="car" speedFactor="0.96" vaporized=""/>
    <tripinfo id="veh_42" depart="1260.00" departLane="E1_0" departPos="5.10" departSpeed="0.00" departDelay="0.00" arrival="1375.00" arrivalLane="E1.200_0" arrivalPos="210.34" arrivalSpeed="14.71" duration="115.00" routeLength="428.09" waitingTime="75.00" waitingCount="1" stopTime="0.00" timeLoss="85.87" rerouteNo="0" devices="tripinfo_veh_42" vType="car" speedFactor="1.09" vaporized=""/>
    <tripinfo id="veh_43" depart="1290.00" departLane="E1_0" departPos="5.10" departSpeed="0.00" departDelay="0.00" arrival="1376.00" arrivalLane="E1.200_1" arrivalPos="210.34" arrivalSpeed="13.82" duration="86.00" routeLength="428.09" waitingTime="44.00" waitingCount="1" stopTime="0.00" timeLoss="55.50" rerouteNo="0" devices="tripinfo_veh_43" vType="car" speedFactor="1.04" vaporized=""/>
    <tripinfo id="veh_44" depart="1320.00" departLane="E1_0" departPos="5.10" departSpeed="0.00" departDelay="0.00" arrival="1378.00" arrivalLane="E1.200_0" arrivalPos="210.34" arrivalSpeed="13.66" duration="58.00" routeLength="428.09" waitingTime="17.00" waitingCount="1" stopTime="0.00" timeLoss="27.66" rerouteNo="0" devices="tripinfo_veh_44" vType="car" speedFactor="1.04" vaporized=""/>
    <tripinfo id="veh_45" depart="1350.00" departLane="E1_0" departPos="5.10" departSpeed="0.00" departDelay="0.00" arrival="1383.00" arrivalLane="E1.200_0" arrivalPos="210.34" arrivalSpeed="14.14" duration="33.00" routeLength="428.09" waitingTime="0.00" waitingCount="0" stopTime="0.00" timeLoss="4.54" rerouteNo="0" devices="tripinfo_veh_45" vType="car" speedFactor="1.09" vaporized=""/>
    <tripinfo id="veh_46" depart="1380.00" departLane="E1_0" departPos="2.30" departSpeed="0.00" departDelay="0.00" arrival="1507.00" arrivalLane="E1.200_0" arrivalPos="210.34" arrivalSpeed="13.54" duration="127.00" routeLength="430.89" waitingTime="88.00" waitingCount="1" stopTime="0.00" timeLoss="95.37" rerouteNo="0" devices="tripinfo_veh_46" vType="motorcycle" speedFactor="1.00" vaporized=""/>
    <tripinfo id="veh_47" depart="1410.00" departLane="E1_0" departPos="2.30" departSpeed="0.00" departDelay="0.00" arrival="1509.00" arrivalLane="E1.200_0" arrivalPos="210.34" arrivalSpeed="11.75" duration="99.00" routeLength="430.89" waitingTime="57.00" waitingCount="1" stopTime="0.00" timeLoss="63.75" rerouteNo="0" devices="tripinfo_veh_47" vType="motorcycle" speedFactor="0.90" vaporized=""/>
    <tripinfo id="veh_48" depart="1440.00" departLane="E1_0" departPos="2.30" departSpeed="0.00" departDelay="0.00" arrival="1511.00" arrivalLane="E1.200_0" arrivalPos="210.34" arrivalSpeed="11.58" duration="71.00" routeLength="430.89" waitingTime="28.00" waitingCount="1" stopTime="0.00" timeLoss="34.84" rerouteNo="0" devices="tripinfo_veh_48" vType="motorcycle" speedFactor="0.88" vaporized=""/>
    <tripinfo id="veh_49" depart="1470.00" departLane="E1_0" departPos="2.30" departSpeed="0.00" departDelay="0.00" arrival="1511.00" arrivalLane="E1.200_1" arrivalPos="210.34" arrivalSpeed="11.70" duration="41.00" routeLength="430.89" waitingTime="0.00" waitingCount="0" stopTime="0.00" timeLoss="4.46" rerouteNo="0" devices="tripinfo_veh_49" vType="motorcycle" speedFactor="0.85" vaporized=""/>
    <tripinfo id="veh_51" depart="1530.00" departLane="E1_0" departPos="5.10" departSpeed="0.00" departDelay="0.00" arrival="1638.00" arrivalLane="E1.200_0" arrivalPos="210.34" arrivalSpeed="16.02" duration="108.00" routeLength="428.09" waitingTime="70.00" waitingCount="1" stopTime="0.00" timeLoss="81.12" rerouteNo="0" devices="tripinfo_veh_51" vType="car" speedFactor="1.17" vaporized=""/>
    <tripinfo id="veh_53" depart="1590.00" departLane="E1_0" departPos="5.10" departSpeed="0.00" departDelay="0.00" arrival="1641.00" arrivalLane="E1.200_1" arrivalPos="210.34" arrivalSpeed="14.00" duration="51.00" routeLength="428.09" waitingTime="11.00" waitingCount="1" stopTime="0.00" timeLoss="22.42" rerouteNo="0" devices="tripinfo_veh_53" vType="car" speedFactor="1.10" vaporized=""/>
    <tripinfo id="veh_50" depart="1500.00" departLane="E1_0" departPos="5.10" departSpeed="0.00" departDelay="0.00" arrival="1643.00" arrivalLane="E1.200_0" arrivalPos="210.34" arrivalSpeed="11.80" duration="143.00" routeLength="428.09" waitingTime="98.00" waitingCount="1" stopTime="0.00" timeLoss="106.16" rerouteNo="0" devices="tripinfo_veh_50" vType="car" speedFactor="0.85" vaporized=""/>
    <tripinfo id="veh_52" depart="1560.00" departLane="E1_0" departPos="2.30" departSpeed="0.00" departDelay="0.00" arrival="1643.00" arrivalLane="E1.200_1" arrivalPos="210.34" arrivalSpeed="14.05" duration="83.00" routeLength="430.89" waitingTime="41.00" waitingCount="1" stopTime="0.00" timeLoss="51.80" rerouteNo="0" devices="tripinfo_veh_52" vType="motorcycle" speedFactor="1.02" vaporized=""/>
    <tripinfo id="veh_54" depart="1620.00" departLane="E1_0" departPos="2.30" departSpeed="0.00" departDelay="0.00" arrival="1654.00" arrivalLane="E1.200_0" arrivalPos="210.34" arrivalSpeed="13.24" duration="34.00" routeLength="430.89" waitingTime="0.00" waitingCount="0" stopTime="0.00" timeLoss="3.07" rerouteNo="0" devices="tripinfo_veh_54" vType="motorcycle" speedFactor="1.00" vaporized=""/>
    <tripinfo id="veh_55" depart="1650.00" departLane="E1_0" departPos="5.10" departSpeed="0.00" departDelay="0.00" arrival="1772.00" arrivalLane="E1.200_0" arrivalPos="210.34" arrivalSpeed="13.30" duration="122.00" routeLength="428.09" waitingTime="80.00" waitingCount="1" stopTime="0.00" timeLoss="90.65" rerouteNo="0" devices="tripinfo_veh_55" vType="car" speedFactor="1.00" vaporized=""/>
    <tripinfo id="veh_56" depart="1680.00" departLane="E1_0" departPos="5.10" departSpeed="0.00" departDelay="0.00" arrival="1774.00" arrivalLane="E1.200_1" arrivalPos="210.34" arrivalSpeed="12.02" duration="94.00" routeLength="428.09" waitingTime="48.00" waitingCount="1" stopTime="0.00" timeLoss="59.27" rerouteNo="0" devices="tripinfo_veh_56" vType="car" speedFactor="0.90" vaporized=""/>
    <tripinfo id="veh_57" depart="1710.00" departLane="E1_0" departPos="5.10" departSpeed="0.00" departDelay="0.00" arrival="1774.00" arrivalLane="E1.200_0" arrivalPos="210.34" arrivalSpeed="15.69" duration="64.00" routeLength="428.09" waitingTime="23.00" waitingCount="1" stopTime="0.00" timeLoss="36.20" rerouteNo="0" devices="tripinfo_veh_57" vType="car" speedFactor="1.14" vaporized=""/>
    <tripinfo id="veh_58" depart="1740.00" departLane="E1_0" departPos="2.30" departSpeed="0.00" departDelay="0.00" arrival="1776.00" arrivalLane="E1.200_1" arrivalPos="210.34" arrivalSpeed="14.14" duration="36.00" routeLength="430.89" waitingTime="0.00" waitingCount="0" stopTime="0.00" timeLoss="4.83" rerouteNo="0" devices="tripinfo_veh_58" vType="motorcycle" speedFactor="1.02" vaporized=""/>
    <tripinfo id="veh_210" depart="1800.00" departLane="E1_0" departPos="2.30" departSpeed="0.00" departDelay="0.00" arrival="1902.00" arrivalLane="E1.200_1" arrivalPos="210.34" arrivalSpeed="14.88" duration="102.00" routeLength="430.89" waitingTime="65.00" waitingCount="1" stopTime="0.00" timeLoss="72.48" rerouteNo="0" devices="tripinfo_veh_210" vType="motorcycle" speedFactor="1.08" vaporized=""/>
    <tripinfo id="veh_59" depart="1770.00" departLane="E1_0" departPos="5.10" departSpeed="0.00" departDelay="0.00" arrival="1904.00" arrivalLane="E1.200_0" arrivalPos="210.34" arrivalSpeed="13.06" duration="134.00" routeLength="428.09" waitingTime="91.00" waitingCount="1" stopTime="0.00" timeLoss="101.81" rerouteNo="0" devices="tripinfo_veh_59" vType="car" speedFactor="0.97" vaporized=""/>
    <tripinfo id="veh_211" depart="1815.00" departLane="E1_0" departPos="5.10" departSpeed="0.00" departDelay="0.00" arrival="1904.00" arrivalLane="E1.200_1" arrivalPos="210.34" arrivalSpeed="15.32" duration="89.00" routeLength="428.09" waitingTime="49.00" waitingCount="1" stopTime="0.00" timeLoss="60.99" rerouteNo="0" devices="tripinfo_veh_211" vType="car" speedFactor="1.12" vaporized=""/>
    <tripinfo id="veh_212" depart="1830.00" departLane="E1_0" departPos="5.10" departSpeed="0.00" departDelay="0.00" arrival="1906.00" arrivalLane="E1.200_0" arrivalPos="210.34" arrivalSpeed="14.00" duration="76.00" routeLength="428.09" waitingTime="33.00" waitingCount="1" stopTime="0.00" timeLoss="44.95" rerouteNo="0" devices="tripinfo_veh_212" vType="car" speedFactor="1.02" vaporized=""/>
    <tripinfo id="veh_213" depart="1845.00" departLane="E1_0" departPos="5.10" departSpeed="0.00" departDelay="0.00" arrival="1908.00" arrivalLane="E1.200_1" arrivalPos="210.34" arrivalSpeed="12.67" duration="63.00" routeLength="428.09" waitingTime="20.00" waitingCount="1" stopTime="0.00" timeLoss="30.94" rerouteNo="0" devices="tripinfo_veh_213" vType="car" speedFactor="0.99" vaporized=""/>
    <tripinfo id="veh_214" depart="1860.00" departLane="E1_0" departPos="2.30" departSpeed="0.00" departDelay="0.00" arrival="1908.00" arrivalLane="E1.200_0" arrivalPos="210.34" arrivalSpeed="12.15" duration="48.00" routeLength="430.89" waitingTime="5.00" waitingCount="1" stopTime="0.00" timeLoss="14.92" rerouteNo="0" devices="tripinfo_veh_214" vType="motorcycle" speedFactor="0.94" vaporized=""/>
    <tripinfo id="veh_215" depart="1872.00" departLane="E1_0" departPos="2.30" departSpeed="0.00" departDelay="0.60" arrival="1911.00" arrivalLane="E1.200_0" arrivalPos="210.34" arrivalSpeed="12.16" duration="39.00" routeLength="430.89" waitingTime="0.00" waitingCount="0" stopTime="0.00" timeLoss="3.34" rerouteNo="0" devices="tripinfo_veh_215" vType="motorcycle" speedFactor="0.88" vaporized=""/>
    <tripinfo id="veh_216" depart="1883.00" departLane="E1_0" departPos="5.10" departSpeed="0.00" departDelay="0.10" arrival="1922.00" arrivalLane="E1.200_0" arrivalPos="210.34" arrivalSpeed="12.46" duration="39.00" routeLength="428.09" waitingTime="0.00" waitingCount="0" stopTime="0.00" timeLoss="4.98" rerouteNo="0" devices="tripinfo_veh_216" vType="car" speedFactor="0.91" vaporized=""/>
    <tripinfo id="veh_218" depart="1906.00" departLane="E1_0" departPos="2.30" departSpeed="0.00" departDelay="0.20" arrival="2034.00" arrivalLane="E1.200_0" arrivalPos="210.34" arrivalSpeed="14.34" duration="128.00" routeLength="430.89" waitingTime="90.00" waitingCount="1" stopTime="0.00" timeLoss="97.56" rerouteNo="0" devices="tripinfo_veh_218" vType="motorcycle" speedFactor="1.04" vaporized=""/>
    <tripinfo id="veh_219" depart="1918.00" departLane="E1_0" departPos="2.30" departSpeed="0.00" departDelay="0.80" arrival="2036.00" arrivalLane="E1.200_1" arrivalPos="210.34" arrivalSpeed="13.96" duration="118.00" routeLength="430.89" waitingTime="80.00" waitingCount="1" stopTime="0.00" timeLoss="87.03" rerouteNo="0" devices="tripinfo_veh_219" vType="motorcycle" speedFactor="1.02" vaporized=""/>
    <tripinfo id="veh_217" depart="1895.00" departLane="E1_0" departPos="5.10" departSpeed="0.00" departDelay="0.70" arrival="2038.00" arrivalLane="E1.200_0" arrivalPos="210.34" arrivalSpeed="11.69" duration="143.00" routeLength="428.09" waitingTime="98.00" waitingCount="1" stopTime="0.00" timeLoss="108.53" rerouteNo="0" devices="tripinfo_veh_217" vType="car" speedFactor="0.91" vaporized=""/>
    <tripinfo id="veh_220" depart="1920.00" departLane="E1_0" departPos="2.30" departSpeed="0.00" departDelay="0.00" arrival="2039.00" arrivalLane="E1.200_0" arrivalPos="210.34" arrivalSpeed="13.92" duration="119.00" routeLength="430.89" waitingTime="78.00" waitingCount="1" stopTime="0.00" timeLoss="88.50" rerouteNo="0" devices="tripinfo_veh_220" vType="motorcycle" speedFactor="1.02" vaporized=""/>
    <tripinfo id="veh_221" depart="1930.00" departLane="E1_0" departPos="5.10" departSpeed="0.00" departDelay="0.70" arrival="2039.00" arrivalLane="E1.200_1" arrivalPos="210.34" arrivalSpeed="13.44" duration="109.00" routeLength="428.09" waitingTime="68.00" waitingCount="1" stopTime="0.00" timeLoss="76.81" rerouteNo="0" devices="tripinfo_veh_221" vType="car" speedFactor="0.97" vaporized=""/>
    <tripinfo id="veh_222" depart="1939.00" departLane="E1_0" departPos="5.10" departSpeed="0.00" departDelay="0.50" arrival="2041.00" arrivalLane="E1.200_0" arrivalPos="210.34" arrivalSpeed="12.81" duration="102.00" routeLength="428.09" waitingTime="57.00" waitingCount="1" stopTime="0.00" timeLoss="68.77" rerouteNo="0" devices="tripinfo_veh_222" vType="car" speedFactor="0.94" vaporized=""/>