<?xml version="1.0" encoding="UTF-8"?>

<!-- generated on 2025-10-06 16:47:42 by Eclipse SUMO sumo Version 1.24.0
<sumoConfiguration xmlns:xsi="http://www.w3.org/2001/XMLSchema-instance" xsi:noNamespaceSchemaLocation="http://sumo.dlr.de/xsd/sumoConfiguration.xsd">

    <input>
        <net-file value="dynamic_scenario_results/../demo.net.xml"/>
        <route-files value="dynamic_scenario_results/dynamic_traffic_normal.rou.xml"/>
    </input>

    <output>
        <tripinfo-output value="dynamic_scenario_results/tripinfo_normal.xml"/>
    </output>

    <time>
        <begin value="0"/>
        <end value="10800"/>
        <step-length value="1"/>
    </time>

    <processing>
        <time-to-teleport value="300"/>
    </processing>

    <report>
        <no-warnings value="true"/>
        <no-step-log value="true"/>
    </report>

    <traci_server>
        <remote-port value="63905"/>
    </traci_server>

</sumoConfiguration>
-->

<tripinfos xmlns:xsi="http://www.w3.org/2001/XMLSchema-instance" xsi:noNamespaceSchemaLocation="http://sumo.dlr.de/xsd/tripinfo_file.xsd">
    <tripinfo id="veh_0" depart="0.00" departLane="E1_0" departPos="5.10" departSpeed="0.00" departDelay="0.00" arrival="55.00" arrivalLane="E1.200_0" arrivalPos="210.34" arrivalSpeed="13.55" duration="55.00" routeLength="428.09" waitingTime="15.00" waitingCount="1" stopTime="0.00" timeLoss="25.37" rerouteNo="0" devices="tripinfo_veh_0" vType="normal_car" speedFactor="1.06" vaporized=""/>
    <tripinfo id="veh_1" depart="30.00" departLane="E1_0" departPos="5.10" departSpeed="0.00" departDelay="0.00" arrival="68.00" arrivalLane="E1.200_0" arrivalPos="210.34" arrivalSpeed="12.52" duration="38.00" routeLength="428.09" waitingTime="0.00" waitingCount="0" stopTime="0.00" timeLoss="4.45" rerouteNo="0" devices="tripinfo_veh_1" vType="normal_car" speedFactor="0.94" vaporized=""/>
    <tripinfo id="veh_2" depart="60.00" departLane="E1_0" departPos="5.10" departSpeed="0.00" departDelay="0.00" arrival="187.00" arrivalLane="E1.200_0" arrivalPos="210.34" arrivalSpeed="13.61" duration="127.00" routeLength="428.09" waitingTime="87.00" waitingCount="1" stopTime="0.00" timeLoss="96.48" rerouteNo="0" devices="tripinfo_veh_2" vType="normal_car" speedFactor="1.01" vaporized=""/>
    <tripinfo id="veh_3" depart="90.00" departLane="E1_0" departPos="5.10" departSpeed="0.00" departDelay="0.00" arrival="187.00" arrivalLane="E1.200_1" arrivalPos="210.34" arrivalSpeed="14.46" duration="97.00" routeLength="428.09" waitingTime="57.00" waitingCount="1" stopTime="0.00" timeLoss="68.38" rerouteNo="0" devices="tripinfo_veh_3" vType="normal_car" speedFactor="1.08" vaporized=""/>
    <tripinfo id="veh_4" depart="120.00" departLane="E1_0" departPos="5.10" departSpeed="0.00" departDelay="0.00" arrival="189.00" arrivalLane="E1.200_0" arrivalPos="210.34" arrivalSpeed="13.48" duration="69.00" routeLength="428.09" waitingTime="27.00" waitingCount="1" stopTime="0.00" timeLoss="38.86" rerouteNo="0" devices="tripinfo_veh_4" vType="normal_car" speedFactor="1.03" vaporized=""/>
    <tripinfo id="veh_5" depart="150.00" departLane="E1_0" departPos="5.10" departSpeed="0.00" departDelay="0.00" arrival="193.00" arrivalLane="E1.200_1" arrivalPos="210.34" arrivalSpeed="10.77" duration="43.00" routeLength="428.09" waitingTime="0.00" waitingCount="0" stopTime="0.00" timeLoss="5.81" rerouteNo="0" devices="tripinfo_veh_5" vType="normal_car" speedFactor="0.83" vaporized=""/>
    <tripinfo id="veh_6" depart="180.00" departLane="E1_0" departPos="5.10" departSpeed="0.00" departDelay="0.00" arrival="215.00" arrivalLane="E1.200_0" arrivalPos="210.34" arrivalSpeed="13.96" duration="35.00" routeLength="428.09" waitingTime="0.00" waitingCount="0" stopTime="0.00" timeLoss="5.00" rerouteNo="0" devices="tripinfo_veh_6" vType="normal_car" speedFactor="1.05" vaporized=""/>
    <tripinfo id="veh_8" depart="240.00" departLane="E1_0" departPos="5.10" departSpeed="0.00" departDelay="0.00" arrival="320.00" arrivalLane="E1.200_1" arrivalPos="210.34" arrivalSpeed="11.82" duration="80.00" routeLength="428.09" waitingTime="37.00" waitingCount="1" stopTime="0.00" timeLoss="47.14" rerouteNo="0" devices="tripinfo_veh_8" vType="normal_car" speedFactor="0.94" vaporized=""/>
    <tripinfo id="veh_7" depart="210.00" departLane="E1_0" departPos="5.10" departSpeed="0.00" departDelay="0.00" arrival="322.00" arrivalLane="E1.200_0" arrivalPos="210.34" arrivalSpeed="11.65" duration="112.00" routeLength="428.09" waitingTime="66.00" waitingCount="1" stopTime="0.00" timeLoss="76.41" rerouteNo="0" devices="tripinfo_veh_7" vType="normal_car" speedFactor="0.89" vaporized=""/>
    <tripinfo id="veh_9" depart="270.00" departLane="E1_0" departPos="5.10" departSpeed="0.00" departDelay="0.00" arrival="325.00" arrivalLane="E1.200_0" arrivalPos="210.34" arrivalSpeed="11.51" duration="55.00" routeLength="428.09" waitingTime="9.00" waitingCount="1" stopTime="0.00" timeLoss="18.12" rerouteNo="0" devices="tripinfo_veh_9" vType="normal_car" speedFactor="0.86" vaporized=""/>
    <tripinfo id="veh_10" depart="300.00" departLane="E1_0" departPos="5.10" departSpeed="0.00" departDelay="0.00" arrival="333.00" arrivalLane="E1.200_0" arrivalPos="210.34" arrivalSpeed="15.12" duration="33.00" routeLength="428.09" waitingTime="0.00" waitingCount="0" stopTime="0.00" timeLoss="4.23" rerouteNo="0" devices="tripinfo_veh_10" vType="normal_car" speedFactor="1.09" vaporized=""/>
    <tripinfo id="veh_12" depart="360.00" departLane="E1_0" departPos="5.10" departSpeed="0.00" departDelay="0.00" arrival="451.00" arrivalLane="E1.200_1" arrivalPos="210.34" arrivalSpeed="13.77" duration="91.00" routeLength="428.09" waitingTime="51.00" waitingCount="1" stopTime="0.00" timeLoss="61.07" rerouteNo="0" devices="tripinfo_veh_12" vType="normal_car" speedFactor="1.05" vaporized=""/>
    <tripinfo id="veh_11" depart="330.00" departLane="E1_0" departPos="5.10" departSpeed="0.00" departDelay="0.00" arrival="452.00" arrivalLane="E1.200_0" arrivalPos="210.34" arrivalSpeed="13.60" duration="122.00" routeLength="428.09" waitingTime="82.00" waitingCount="1" stopTime="0.00" timeLoss="91.18" rerouteNo="0" devices="tripinfo_veh_11" vType="normal_car" speedFactor="1.03" vaporized=""/>
    <tripinfo id="veh_13" depart="390.00" departLane="E1_0" departPos="5.10" departSpeed="0.00" departDelay="0.00" arrival="453.00" arrivalLane="E1.200_1" arrivalPos="210.34" arrivalSpeed="15.03" duration="63.00" routeLength="428.09" waitingTime="22.00" waitingCount="1" stopTime="0.00" timeLoss="34.67" rerouteNo="0" devices="tripinfo_veh_13" vType="normal_car" speedFactor="1.12" vaporized=""/>
    <tripinfo id="veh_14" depart="420.00" departLane="E1_0" departPos="5.10" departSpeed="0.00" departDelay="0.00" arrival="456.00" arrivalLane="E1.200_0" arrivalPos="210.34" arrivalSpeed="12.54" duration="36.00" routeLength="428.09" waitingTime="0.00" waitingCount="0" stopTime="0.00" timeLoss="4.83" rerouteNo="0" devices="tripinfo_veh_14" vType="normal_car" speedFactor="0.99" vaporized=""/>
    <tripinfo id="veh_15" depart="450.00" departLane="E1_0" departPos="5.10" departSpeed="0.00" departDelay="0.00" arrival="586.00" arrivalLane="E1.200_0" arrivalPos="210.34" arrivalSpeed="12.39" duration="136.00" routeLength="428.09" waitingTime="91.00" waitingCount="1" stopTime="0.00" timeLoss="101.87" rerouteNo="0" devices="tripinfo_veh_15" vType="normal_car" speedFactor="0.93" vaporized=""/>
    <tripinfo id="veh_16" depart="480.00" departLane="E1_0" departPos="5.10" departSpeed="0.00" departDelay="0.00" arrival="586.00" arrivalLane="E1.200_1" arrivalPos="210.34" arrivalSpeed="11.88" duration="106.00" routeLength="428.09" waitingTime="60.00" waitingCount="1" stopTime="0.00" timeLoss="70.61" rerouteNo="0" devices="tripinfo_veh_16" vType="normal_car" speedFactor="0.88" vaporized=""/>
    <tripinfo id="veh_17" depart="510.00" departLane="E1_0" departPos="5.10" departSpeed="0.00" departDelay="0.00" arrival="587.00" arrivalLane="E1.200_0" arrivalPos="210.34" arrivalSpeed="12.80" duration="77.00" routeLength="428.09" waitingTime="34.00" waitingCount="1" stopTime="0.00" timeLoss="44.03" rerouteNo="0" devices="tripinfo_veh_17" vType="normal_car" speedFactor="0.94" vaporized=""/>
    <tripinfo id="veh_18" depart="540.00" departLane="E1_0" departPos="5.10" departSpeed="0.00" departDelay="0.00" arrival="588.00" arrivalLane="E1.200_1" arrivalPos="210.34" arrivalSpeed="12.05" duration="48.00" routeLength="428.09" waitingTime="3.00" waitingCount="1" stopTime="0.00" timeLoss="14.65" rerouteNo="0" devices="tripinfo_veh_18" vType="normal_car" speedFactor="0.94" vaporized=""/>
    <tripinfo id="veh_19" depart="570.00" departLane="E1_0" departPos="5.10" departSpeed="0.00" departDelay="0.00" arrival="602.00" arrivalLane="E1.200_0" arrivalPos="210.34" arrivalSpeed="15.49" duration="32.00" routeLength="428.09" waitingTime="0.00" waitingCount="0" stopTime="0.00" timeLoss="4.81" rerouteNo="0" devices="tripinfo_veh_19" vType="normal_car" speedFactor="1.16" vaporized=""/>
    <tripinfo id="veh_20" depart="600.00" departLane="E1_0" departPos="5.10" departSpeed="0.00" departDelay="0.00" arrival="716.00" arrivalLane="E1.200_0" arrivalPos="210.34" arrivalSpeed="13.57" duration="116.00" routeLength="428.09" waitingTime="75.00" waitingCount="1" stopTime="0.00" timeLoss="85.24" rerouteNo="0" devices="tripinfo_veh_20" vType="normal_car" speedFactor="1.02" vaporized=""/>
    <tripinfo id="veh_21" depart="630.00" departLane="E1_0" departPos="5.10" departSpeed="0.00" departDelay="0.00" arrival="716.00" arrivalLane="E1.200_1" arrivalPos="210.34" arrivalSpeed="12.93" duration="86.00" routeLength="428.09" waitingTime="44.00" waitingCount="1" stopTime="0.00" timeLoss="54.63" rerouteNo="0" devices="tripinfo_veh_21" vType="normal_car" speedFactor="1.01" vaporized=""/>
    <tripinfo id="veh_22" depart="660.00" departLane="E1_0" departPos="5.10" departSpeed="0.00" departDelay="0.00" arrival="718.00" arrivalLane="E1.200_0" arrivalPos="210.34" arrivalSpeed="12.55" duration="58.00" routeLength="428.09" waitingTime="16.00" waitingCount="1" stopTime="0.00" timeLoss="26.13" rerouteNo="0" devices="tripinfo_veh_22" vType="normal_car" speedFactor="0.97" vaporized=""/>
    <tripinfo id="veh_23" depart="690.00" departLane="E1_0" departPos="5.10" departSpeed="0.00" departDelay="0.00" arrival="730.00" arrivalLane="E1.200_0" arrivalPos="210.34" arrivalSpeed="11.43" duration="40.00" routeLength="428.09" waitingTime="0.00" waitingCount="0" stopTime="0.00" timeLoss="4.81" rerouteNo="0" devices="tripinfo_veh_23" vType="normal_car" speedFactor="0.89" vaporized=""/>
    <tripinfo id="veh_25" depart="750.00" departLane="E1_0" departPos="5.10" departSpeed="0.00" departDelay="0.00" arrival="850.00" arrivalLane="E1.200_1" arrivalPos="210.34" arrivalSpeed="11.85" duration="100.00" routeLength="428.09" waitingTime="55.00" waitingCount="1" stopTime="0.00" timeLoss="64.29" rerouteNo="0" devices="tripinfo_veh_25" vType="normal_car" speedFactor="0.87" vaporized=""/>
    <tripinfo id="veh_24" depart="720.00" departLane="E1_0" departPos="5.10" departSpeed="0.00" departDelay="0.00" arrival="851.00" arrivalLane="E1.200_0" arrivalPos="210.34" arrivalSpeed="10.83" duration="131.00" routeLength="428.09" waitingTime="84.00" waitingCount="1" stopTime="0.00" timeLoss="93.38" rerouteNo="0" devices="tripinfo_veh_24" vType="normal_car" speedFactor="0.83" vaporized=""/>
    <tripinfo id="veh_27" depart="810.00" departLane="E1_0" departPos="5.10" departSpeed="0.00" departDelay="0.00" arrival="852.00" arrivalLane="E1.200_1" arrivalPos="210.34" arrivalSpeed="12.72" duration="42.00" routeLength="428.09" waitingTime="0.00" waitingCount="0" stopTime="0.00" timeLoss="8.88" rerouteNo="0" devices="tripinfo_veh_27" vType="normal_car" speedFactor="0.95" vaporized=""/>
    <tripinfo id="veh_26" depart="780.00" departLane="E1_0" departPos="5.10" departSpeed="0.00" departDelay="0.00" arrival="853.00" arrivalLane="E1.200_0" arrivalPos="210.34" arrivalSpeed="12.43" duration="73.00" routeLength="428.09" waitingTime="27.00" waitingCount="1" stopTime="0.00" timeLoss="38.85" rerouteNo="0" devices="tripinfo_veh_26" vType="normal_car" speedFactor="0.92" vaporized=""/>
    <tripinfo id="veh_28" depart="840.00" departLane="E1_0" departPos="5.10" departSpeed="0.00" departDelay="0.00" arrival="872.00" arrivalLane="E1.200_0" arrivalPos="210.34" arrivalSpeed="15.41" duration="32.00" routeLength="428.09" waitingTime="0.00" waitingCount="0" stopTime="0.00" timeLoss="4.52" rerouteNo="0" devices="tripinfo_veh_28" vType="normal_car" speedFactor="1.13" vaporized=""/>
    <tripinfo id="veh_30" depart="900.00" departLane="E1_0" departPos="5.10" departSpeed="0.00" departDelay="0.00" arrival="977.00" arrivalLane="E1.200_1" arrivalPos="210.34" arrivalSpeed="15.56" duration="77.00" routeLength="428.09" waitingTime="40.00" waitingCount="1" stopTime="0.00" timeLoss="50.58" rerouteNo="0" devices="tripinfo_veh_30" vType="normal_car" speedFactor="1.18" vaporized=""/>
    <tripinfo id="veh_29" depart="870.00" departLane="E1_0" departPos="5.10" departSpeed="0.00" departDelay="0.00" arrival="981.00" arrivalLane="E1.200_0" arrivalPos="210.34" arrivalSpeed="11.72" duration="111.00" routeLength="428.09" waitingTime="67.00" waitingCount="1" stopTime="0.00" timeLoss="77.81" rerouteNo="0" devices="tripinfo_veh_29" vType="normal_car" speedFactor="0.93" vaporized=""/>
    <tripinfo id="veh_31" depart="930.00" departLane="E1_0" departPos="5.10" departSpeed="0.00" departDelay="0.00" arrival="983.00" arrivalLane="E1.200_0" arrivalPos="210.34" arrivalSpeed="15.29" duration="53.00" routeLength="428.09" waitingTime="12.00" waitingCount="1" stopTime="0.00" timeLoss="25.70" rerouteNo="0" devices="tripinfo_veh_31" vType="normal_car" speedFactor="1.15" vaporized=""/>
    <tripinfo id="veh_32" depart="960.00" departLane="E1_0" departPos="5.10" departSpeed="0.00" departDelay="0.00" arrival="996.00" arrivalLane="E1.200_0" arrivalPos="210.34" arrivalSpeed="12.86" duration="36.00" routeLength="428.09" waitingTime="0.00" waitingCount="0" stopTime="0.00" timeLoss="4.80" rerouteNo="0" devices="tripinfo_veh_32" vType="normal_car" speedFactor="1.01" vaporized=""/>
    <tripinfo id="veh_33" depart="990.00" departLane="E1_0" departPos="5.10" departSpeed="0.00" departDelay="0.00" arrival="1110.00" arrivalLane="E1.200_0" arrivalPos="210.34" arrivalSpeed="15.53" duration="120.00" routeLength="428.09" waitingTime="81.00" waitingCount="1" stopTime="0.00" timeLoss="93.14" rerouteNo="0" devices="tripinfo_veh_33" vType="normal_car" speedFactor="1.17" vaporized=""/>
    <tripinfo id="veh_34" depart="1020.00" departLane="E1_0" departPos="5.10" departSpeed="0.00" departDelay="0.00" arrival="1112.00" arrivalLane="E1.200_0" arrivalPos="210.34" arrivalSpeed="13.73" duration="92.00" routeLength="428.09" waitingTime="51.00" waitingCount="1" stopTime="0.00" timeLoss="60.56" rerouteNo="0" devices="tripinfo_veh_34" vType="normal_car" speedFactor="0.99" vaporized=""/>
    <tripinfo id="veh_35" depart="1050.00" departLane="E1_0" departPos="5.10" departSpeed="0.00" departDelay="0.00" arrival="1114.00" arrivalLane="E1.200_0" arrivalPos="210.34" arrivalSpeed="13.40" duration="64.00" routeLength="428.09" waitingTime="22.00" waitingCount="1" stopTime="0.00" timeLoss="33.10" rerouteNo="0" devices="tripinfo_veh_35" vType="normal_car" speedFactor="1.02" vaporized=""/>
    <tripinfo id="veh_36" depart="1080.00" departLane="E1_0" departPos="5.10" departSpeed="0.00" departDelay="0.00" arrival="1116.00" arrivalLane="E1.200_0" arrivalPos="210.34" arrivalSpeed="12.81" duration="36.00" routeLength="428.09" waitingTime="0.00" waitingCount="0" stopTime="0.00" timeLoss="4.29" rerouteNo="0" devices="tripinfo_veh_36" vType="normal_car" speedFactor="0.97" vaporized=""/>
    <tripinfo id="veh_37" depart="1110.00" departLane="E1_0" departPos="5.10" departSpeed="0.00" departDelay="0.00" arrival="1242.00" arrivalLane="E1.200_0" arrivalPos="210.34" arrivalSpeed="15.67" duration="132.00" routeLength="428.09" waitingTime="94.00" waitingCount="1" stopTime="0.00" timeLoss="105.63" rerouteNo="0" devices="tripinfo_veh_37" vType="normal_car" speedFactor="1.18" vaporized=""/>
    <tripinfo id="veh_38" depart="1140.00" departLane="E1_0" departPos="5.10" departSpeed="0.00" departDelay="0.00" arrival="1242.00" arrivalLane="E1.200_1" arrivalPos="210.34" arrivalSpeed="14.94" duration="102.00" routeLength="428.09" waitingTime="64.00" waitingCount="1" stopTime="0.00" timeLoss="73.76" rerouteNo="0" devices="tripinfo_veh_38" vType="normal_car" speedFactor="1.10" vaporized=""/>
    <tripinfo id="veh_40" depart="1200.00" departLane="E1_0" departPos="5.10" departSpeed="0.00" departDelay="0.00" arrival="1245.00" arrivalLane="E1.200_1" arrivalPos="210.34" arrivalSpeed="14.14" duration="45.00" routeLength="428.09" waitingTime="5.00" waitingCount="1" stopTime="0.00" timeLoss="14.37" rerouteNo="0" devices="tripinfo_veh_40" vType="normal_car" speedFactor="1.03" vaporized=""/>
    <tripinfo id="veh_39" depart="1170.00" departLane="E1_0" departPos="5.10" departSpeed="0.00" departDelay="0.00" arrival="1248.00" arrivalLane="E1.200_0" arrivalPos="210.34" arrivalSpeed="12.15" duration="78.00" routeLength="428.09" waitingTime="34.00" waitingCount="1" stopTime="0.00" timeLoss="43.37" rerouteNo="0" devices="tripinfo_veh_39" vType="normal_car" speedFactor="0.90" vaporized=""/>
    <tripinfo id="veh_41" depart="1230.00" departLane="E1_0" departPos="5.10" departSpeed="0.00" departDelay="0.00" arrival="1268.00" arrivalLane="E1.200_0" arrivalPos="210.34" arrivalSpeed="12.76" duration="38.00" routeLength="428.09" waitingTime="0.00" waitingCount="0" stopTime="0.00" timeLoss="4.91" rerouteNo="0" devices="tripinfo_veh_41" vType="normal_car" speedFactor="0.96" vaporized=""/>
    <tripinfo id="veh_42" depart="1260.00" departLane="E1_0" departPos="5.10" departSpeed="0.00" departDelay="0.00" arrival="1375.00" arrivalLane="E1.200_0" arrivalPos="210.34" arrivalSpeed="14.75" duration="115.00" routeLength="428.09" waitingTime="76.00" waitingCount="1" stopTime="0.00" timeLoss="86.01" rerouteNo="0" devices="tripinfo_veh_42" vType="normal_car" speedFactor="1.09" vaporized=""/>
    <tripinfo id="veh_43" depart="1290.00" departLane="E1_0" departPos="5.10" departSpeed="0.00" departDelay="0.00" arrival="1376.00" arrivalLane="E1.200_1" arrivalPos="210.34" arrivalSpeed="13.68" duration="86.00" routeLength="428.09" waitingTime="44.00" waitingCount="1" stopTime="0.00" timeLoss="55.78" rerouteNo="0" devices="tripinfo_veh_43" vType="normal_car" speedFactor="1.04" vaporized=""/>
    <tripinfo id="veh_44" depart="1320.00" departLane="E1_0" departPos="5.10" departSpeed="0.00" departDelay="0.00" arrival="1377.00" arrivalLane="E1.200_0" arrivalPos="210.34" arrivalSpeed="13.80" duration="57.00" routeLength="428.09" waitingTime="18.00" waitingCount="1" stopTime="0.00" timeLoss="27.05" rerouteNo="0" devices="tripinfo_veh_44" vType="normal_car" speedFactor="1.04" vaporized=""/>
    <tripinfo id="veh_45" depart="1350.00" departLane="E1_0" departPos="5.10" departSpeed="0.00" departDelay="0.00" arrival="1384.00" arrivalLane="E1.200_0" arrivalPos="210.34" arrivalSpeed="14.78" duration="34.00" routeLength="428.09" waitingTime="0.00" waitingCount="0" stopTime="0.00" timeLoss="5.10" rerouteNo="0" devices="tripinfo_veh_45" vType="normal_car" speedFactor="1.09" vaporized=""/>
    <tripinfo id="veh_46" depart="1380.00" departLane="E1_0" departPos="5.10" departSpeed="0.00" departDelay="0.00" arrival="1508.00" arrivalLane="E1.200_0" arrivalPos="210.34" arrivalSpeed="13.15" duration="128.00" routeLength="428.09" waitingTime="86.00" waitingCount="1" stopTime="0.00" timeLoss="96.84" rerouteNo="0" devices="tripinfo_veh_46" vType="normal_car" speedFactor="1.00" vaporized=""/>
    <tripinfo id="veh_47" depart="1410.00" departLane="E1_0" departPos="5.10" departSpeed="0.00" departDelay="0.00" arrival="1510.00" arrivalLane="E1.200_0" arrivalPos="210.34" arrivalSpeed="11.62" duration="100.00" routeLength="428.09" waitingTime="56.00" waitingCount="1" stopTime="0.00" timeLoss="65.12" rerouteNo="0" devices="tripinfo_veh_47" vType="normal_car" speedFactor="0.90" vaporized=""/>
    <tripinfo id="veh_48" depart="1440.00" departLane="E1_0" departPos="5.10" departSpeed="0.00" departDelay="0.00" arrival="1512.00" arrivalLane="E1.200_0" arrivalPos="210.34" arrivalSpeed="12.14" duration="72.00" routeLength="428.09" waitingTime="27.00" waitingCount="1" stopTime="0.00" timeLoss="36.67" rerouteNo="0" devices="tripinfo_veh_48" vType="normal_car" speedFactor="0.88" vaporized=""/>
    <tripinfo id="veh_49" depart="1470.00" departLane="E1_0" departPos="5.10" departSpeed="0.00" departDelay="0.00" arrival="1513.00" arrivalLane="E1.200_1" arrivalPos="210.34" arrivalSpeed="11.74" duration="43.00" routeLength="428.09" waitingTime="0.00" waitingCount="0" stopTime="0.00" timeLoss="6.04" rerouteNo="0" devices="tripinfo_veh_49" vType="normal_car" speedFactor="0.85" vaporized=""/>
    <tripinfo id="veh_51" depart="1530.00" departLane="E1_0" departPos="5.10" departSpeed="0.00" departDelay="0.00" arrival="1638.00" arrivalLane="E1.200_1" arrivalPos="210.34" arrivalSpeed="16.19" duration="108.00" routeLength="428.09" waitingTime="69.00" waitingCount="1" stopTime="0.00" timeLoss="81.07" rerouteNo="0" devices="tripinfo_veh_51" vType="normal_car" speedFactor="1.17" vaporized=""/>
    <tripinfo id="veh_53" depart="1590.00" departLane="E1_0" departPos="5.10" departSpeed="0.00" departDelay="0.00" arrival="1641.00" arrivalLane="E1.200_1" arrivalPos="210.34" arrivalSpeed="14.71" duration="51.00" routeLength="428.09" waitingTime="11.00" waitingCount="1" stopTime="0.00" timeLoss="22.32" rerouteNo="0" devices="tripinfo_veh_53" vType="normal_car" speedFactor="1.10" vaporized=""/>
    <tripinfo id="veh_50" depart="1500.00" departLane="E1_0" departPos="5.10" departSpeed="0.00" departDelay="0.00" arrival="1642.00" arrivalLane="E1.200_0" arrivalPos="210.34" arrivalSpeed="11.80" duration="142.00" routeLength="428.09" waitingTime="96.00" waitingCount="1" stopTime="0.00" timeLoss="105.51" rerouteNo="0" devices="tripinfo_veh_50" vType="normal_car" speedFactor="0.85" vaporized=""/>
    <tripinfo id="veh_52" depart="1560.00" departLane="E1_0" departPos="5.10" departSpeed="0.00" departDelay="0.00" arrival="1644.00" arrivalLane="E1.200_0" arrivalPos="210.34" arrivalSpeed="12.85" duration="84.00" routeLength="428.09" waitingTime="38.00" waitingCount="1" stopTime="0.00" timeLoss="53.03" rerouteNo="0" devices="tripinfo_veh_52" vType="normal_car" speedFactor="1.02" vaporized=""/>
    <tripinfo id="veh_54" depart="1620.00" departLane="E1_0" departPos="5.10" departSpeed="0.00" departDelay="0.00" arrival="1656.00" arrivalLane="E1.200_0" arrivalPos="210.34" arrivalSpeed="13.56" duration="36.00" routeLength="428.09" waitingTime="0.00" waitingCount="0" stopTime="0.00" timeLoss="4.61" rerouteNo="0" devices="tripinfo_veh_54" vType="normal_car" speedFactor="1.00" vaporized=""/>
    <tripinfo id="veh_55" depart="1650.00" departLane="E1_0" departPos="5.10" departSpeed="0.00" departDelay="0.00" arrival="1772.00" arrivalLane="E1.200_0" arrivalPos="210.34" arrivalSpeed="12.70" duration="122.00" routeLength="428.09" waitingTime="80.00" waitingCount="1" stopTime="0.00" timeLoss="90.62" rerouteNo="0" devices="tripinfo_veh_55" vType="normal_car" speedFactor="1.00" vaporized=""/>
    <tripinfo id="veh_56" depart="1680.00" departLane="E1_0" departPos="5.10" departSpeed="0.00" departDelay="0.00" arrival="1774.00" arrivalLane="E1.200_1" arrivalPos="210.34" arrivalSpeed="11.60" duration="94.00" routeLength="428.09" waitingTime="51.00" waitingCount="1" stopTime="0.00" timeLoss="59.02" rerouteNo="0" devices="tripinfo_veh_56" vType="normal_car" speedFactor="0.90" vaporized=""/>
    <tripinfo id="veh_57" depart="1710.00" departLane="E1_0" departPos="5.10" departSpeed="0.00" departDelay="0.00" arrival="1774.00" arrivalLane="E1.200_0" arrivalPos="210.34" arrivalSpeed="15.62" duration="64.00" routeLength="428.09" waitingTime="24.00" waitingCount="1" stopTime="0.00" timeLoss="36.15" rerouteNo="0" devices="tripinfo_veh_57" vType="normal_car" speedFactor="1.14" vaporized=""/>
    <tripinfo id="veh_58" depart="1740.00" departLane="E1_0" departPos="5.10" departSpeed="0.00" departDelay="0.00" arrival="1775.00" arrivalLane="E1.200_1" arrivalPos="210.34" arrivalSpeed="13.96" duration="35.00" routeLength="428.09" waitingTime="0.00" waitingCount="0" stopTime="0.00" timeLoss="4.87" rerouteNo="0" devices="tripinfo_veh_58" vType="normal_car" speedFactor="1.02" vaporized=""/>
    <tripinfo id="veh_210" depart="1800.00" departLane="E1_0" departPos="5.10" departSpeed="0.00" departDelay="0.00" arrival="1903.00" arrivalLane="E1.200_0" arrivalPos="210.34" arrivalSpeed="14.49" duration="103.00" routeLength="428.09" waitingTime="65.00" waitingCount="1" stopTime="0.00" timeLoss="73.81" rerouteNo="0" devices="tripinfo_veh_210" vType="normal_car" speedFactor="1.08" vaporized=""/>
    <tripinfo id="veh_59" depart="1770.00" departLane="E1_0" departPos="5.10" departSpeed="0.00" departDelay="0.00" arrival="1904.00" arrivalLane="E1.200_0" arrivalPos="210.34" arrivalSpeed="13.45" duration="134.00" routeLength="428.09" waitingTime="94.00" waitingCount="1" stopTime="0.00" timeLoss="102.05" rerouteNo="0" devices="tripinfo_veh_59" vType="normal_car" speedFactor="0.97" vaporized=""/>
    <tripinfo id="veh_212" depart="1860.00" departLane="E1_0" departPos="5.10" departSpeed="0.00" departDelay="0.00" arrival="1905.00" arrivalLane="E1.200_1" arrivalPos="210.34" arrivalSpeed="13.42" duration="45.00" routeLength="428.09" waitingTime="3.00" waitingCount="1" stopTime="0.00" timeLoss="14.59" rerouteNo="0" devices="tripinfo_veh_212" vType="normal_car" speedFactor="1.02" vaporized=""/>
    <tripinfo id="veh_211" depart="1845.00" departLane="E1_0" departPos="5.10" departSpeed="0.00" departDelay="0.00" arrival="1906.00" arrivalLane="E1.200_0" arrivalPos="210.34" arrivalSpeed="14.37" duration="61.00" routeLength="428.09" waitingTime="19.00" waitingCount="1" stopTime="0.00" timeLoss="32.87" rerouteNo="0" devices="tripinfo_veh_211" vType="normal_car" speedFactor="1.12" vaporized=""/>
    <tripinfo id="veh_213" depart="1895.00" departLane="E1_0" departPos="5.10" departSpeed="0.00" departDelay="0.70" arrival="1932.00" arrivalLane="E1.200_0" arrivalPos="210.34" arrivalSpeed="13.60" duration="37.00" routeLength="428.09" waitingTime="0.00" waitingCount="0" stopTime="0.00" timeLoss="4.90" rerouteNo="0" devices="tripinfo_veh_213" vType="normal_car" speedFactor="0.99" vaporized=""/>
    <tripinfo id="veh_214" depart="1920.00" departLane="E1_0" departPos="5.10" departSpeed="0.00" departDelay="0.00" arrival="2037.00" arrivalLane="E1.200_0" arrivalPos="210.34" arrivalSpeed="12.52" duration="117.00" routeLength="428.09" waitingTime="72.00" waitingCount="1" stopTime="0.00" timeLoss="83.86" rerouteNo="0" devices="tripinfo_veh_214" vType="normal_car" speedFactor="0.94" vaporized=""/>
    <tripinfo id="veh_215" depart="1948.00" departLane="E1_0" departPos="5.10" departSpeed="0.00" departDelay="0.20" arrival="2038.00" arrivalLane="E1.200_1" arrivalPos="210.34" arrivalSpeed="11.58" duration="90.00" routeLength="428.09" waitingTime="45.00" waitingCount="1" stopTime="0.00" timeLoss="54.91" rerouteNo="0" devices="tripinfo_veh_215" vType="normal_car" speedFactor="0.88" vaporized=""/>
    <tripinfo id="veh_216" depart="1976.00" departLane="E1_0" departPos="5.10" departSpeed="0.00" departDelay="0.50" arrival="2039.00" arrivalLane="E1.200_0" arrivalPos="210.34" arrivalSpeed="11.58" duration="63.00" routeLength="428.09" waitingTime="18.00" waitingCount="1" stopTime="0.00" timeLoss="29.00" rerouteNo="0" devices="tripinfo_veh_216" vType="normal_car" speedFactor="0.91" vaporized=""/>
    <tripinfo id="veh_217" depart="1980.00" departLane="E1_0" departPos="5.10" departSpeed="0.00" departDelay="0.00" arrival="2040.00" arrivalLane="E1.200_1" arrivalPos="210.34" arrivalSpeed="12.24" duration="60.00" routeLength="428.09" waitingTime="15.00" waitingCount="1" stopTime="0.00" timeLoss="25.94" rerouteNo="0" devices="tripinfo_veh_217" vType="normal_car" speedFactor="0.91" vaporized=""/>
    <tripinfo id="veh_218" depart="2004.00" departLane="E1_0" departPos="5.10" departSpeed="0.00" departDelay="0.70" arrival="2041.00" arrivalLane="E1.200_0" arrivalPos="210.34" arrivalSpeed="14.34" duration="37.00" routeLength="428.09" waitingTime="0.00" waitingCount="0" stopTime="0.00" timeLoss="6.89" rerouteNo="0" devices="tripinfo_veh_218" vType="normal_car" speedFactor="1.04" vaporized=""/>
    <tripinfo id="veh_219" depart="2027.00" departLane="E1_0" departPos="5.10" departSpeed="0.00" departDelay="0.40" arrival="2062.00" arrivalLane="E1.200_0" arrivalPos="210.34" arrivalSpeed="13.13" duration="35.00" routeLength="428.09" waitingTime="0.00" waitingCount="0" stopTime="0.00" timeLoss="4.65" rerouteNo="0" devices="tripinfo_veh_219" vType="normal_car" speedFactor="1.02" vaporized=""/>
    <tripinfo id="veh_220" depart="2040.00" departLane="E1_0" departPos="5.10" departSpeed="0.00" departDelay="0.00" arrival="2168.00" arrivalLane="E1.200_0" arrivalPos="210.34" arrivalSpeed="14.04" duration="128.00" routeLength="428.09" waitingTime="88.00" waitingCount="1" stopTime="0.00" timeLoss="96.96" rerouteNo="0" devices="tripinfo_veh_220" vType="normal_car" speedFactor="1.02" vaporized=""/>
    <tripinfo id="veh_221" depart="2061.00" departLane="E1_0" departPos="5.10" departSpeed="0.00" departDelay="0.90" arrival="2169.00" arrivalLane="E1.200_0" arrivalPos="210.34" arrivalSpeed="13.22" duration="108.00" routeLength="428.09" waitingTime="65.00" waitingCount="1" stopTime="0.00" timeLoss="75.70" rerouteNo="0" devices="tripinfo_veh_221" vType="normal_car" speedFactor="0.97" vaporized=""/>