<?xml version="1.0" encoding="UTF-8"?>

<!-- generated on 2025-10-06 16:48:07 by Eclipse SUMO sumo Version 1.24.0
<sumoConfiguration xmlns:xsi="http://www.w3.org/2001/XMLSchema-instance" xsi:noNamespaceSchemaLocation="http://sumo.dlr.de/xsd/sumoConfiguration.xsd">

    <input>
        <net-file value="dynamic_scenario_results/../demo.net.xml"/>
        <route-files value="dynamic_scenario_results/dynamic_traffic_adaptive.rou.xml"/>
    </input>

    <output>
        <tripinfo-output value="dynamic_scenario_results/tripinfo_adaptive.xml"/>
    </output>

    <time>
        <begin value="0"/>
        <end value="10800"/>
        <step-length value="1"/>
    </time>

    <processing>
        <time-to-teleport value="300"/>
    </processing>

    <report>
        <no-warnings value="true"/>
        <no-step-log value="true"/>
    </report>

    <traci_server>
        <remote-port value="58633"/>
    </traci_server>

</sumoConfiguration>
-->

<tripinfos xmlns:xsi="http://www.w3.org/2001/XMLSchema-instance" xsi:noNamespaceSchemaLocation="http://sumo.dlr.de/xsd/tripinfo_file.xsd">
    <tripinfo id="veh_0" depart="0.00" departLane="E1_0" departPos="5.10" departSpeed="0.00" departDelay="0.00" arrival="336.00" arrivalLane="E1.200_0" arrivalPos="210.34" arrivalSpeed="13.58" duration="336.00" routeLength="407.13" waitingTime="301.00" waitingCount="1" stopTime="0.00" timeLoss="308.49" rerouteNo="0" devices="tripinfo_veh_0" vType="normal_car" speedFactor="1.06" vaporized=""/>
    <tripinfo id="veh_1" depart="30.00" departLane="E1_0" departPos="5.10" departSpeed="0.00" departDelay="0.00" arrival="370.00" arrivalLane="E1.200_0" arrivalPos="210.34" arrivalSpeed="12.52" duration="340.00" routeLength="407.13" waitingTime="301.00" waitingCount="1" stopTime="0.00" timeLoss="308.98" rerouteNo="0" devices="tripinfo_veh_1" vType="normal_car" speedFactor="0.94" vaporized=""/>
    <tripinfo id="veh_3" depart="90.00" departLane="E1_0" departPos="5.10" departSpeed="0.00" departDelay="0.00" arrival="643.00" arrivalLane="E1.200_0" arrivalPos="210.34" arrivalSpeed="14.03" duration="553.00" routeLength="407.13" waitingTime="513.00" waitingCount="2" stopTime="0.00" timeLoss="525.57" rerouteNo="0" devices="tripinfo_veh_3" vType="normal_car" speedFactor="1.08" vaporized=""/>
    <tripinfo id="veh_5" depart="150.00" departLane="E1_0" departPos="5.10" departSpeed="0.00" departDelay="0.00" arrival="676.00" arrivalLane="E1.200_0" arrivalPos="210.34" arrivalSpeed="11.24" duration="526.00" routeLength="407.13" waitingTime="478.00" waitingCount="3" stopTime="0.00" timeLoss="491.02" rerouteNo="0" devices="tripinfo_veh_5" vType="normal_car" speedFactor="0.83" vaporized=""/>
    <tripinfo id="veh_2" depart="60.00" departLane="E1_0" departPos="5.10" departSpeed="0.00" departDelay="0.00" arrival="949.00" arrivalLane="E1.200_0" arrivalPos="210.34" arrivalSpeed="13.88" duration="889.00" routeLength="407.13" waitingTime="849.00" waitingCount="2" stopTime="0.00" timeLoss="859.63" rerouteNo="0" devices="tripinfo_veh_2" vType="normal_car" speedFactor="1.01" vaporized=""/>
    <tripinfo id="veh_7" depart="210.00" departLane="E1_0" departPos="5.10" departSpeed="0.00" departDelay="0.00" arrival="980.00" arrivalLane="E1.200_0" arrivalPos="210.34" arrivalSpeed="12.26" duration="770.00" routeLength="407.13" waitingTime="717.00" waitingCount="4" stopTime="0.00" timeLoss="737.19" rerouteNo="0" devices="tripinfo_veh_7" vType="normal_car" speedFactor="0.89" vaporized=""/>
    <tripinfo id="veh_4" depart="120.00" departLane="E1_0" departPos="5.10" departSpeed="0.00" departDelay="0.00" arrival="1253.00" arrivalLane="E1.200_0" arrivalPos="210.34" arrivalSpeed="14.25" duration="1133.00" routeLength="407.13" waitingTime="1090.00" waitingCount="3" stopTime="0.00" timeLoss="1104.83" rerouteNo="0" devices="tripinfo_veh_4" vType="normal_car" speedFactor="1.03" vaporized=""/>
    <tripinfo id="veh_9" depart="270.00" departLane="E1_0" departPos="5.10" departSpeed="0.00" departDelay="0.00" arrival="1286.00" arrivalLane="E1.200_0" arrivalPos="210.34" arrivalSpeed="10.87" duration="1016.00" routeLength="407.13" waitingTime="959.00" waitingCount="6" stopTime="0.00" timeLoss="981.67" rerouteNo="0" devices="tripinfo_veh_9" vType="normal_car" speedFactor="0.86" vaporized=""/>
    <tripinfo id="veh_10" depart="300.00" departLane="E1_0" departPos="5.10" departSpeed="0.00" departDelay="0.00" arrival="1557.00" arrivalLane="E1.200_0" arrivalPos="210.34" arrivalSpeed="14.38" duration="1257.00" routeLength="407.13" waitingTime="1200.00" waitingCount="6" stopTime="0.00" timeLoss="1229.61" rerouteNo="0" devices="tripinfo_veh_10" vType="normal_car" speedFactor="1.09" vaporized=""/>
    <tripinfo id="veh_11" depart="330.00" departLane="E1_0" departPos="5.10" departSpeed="0.00" departDelay="0.00" arrival="1587.00" arrivalLane="E1.200_0" arrivalPos="210.34" arrivalSpeed="13.04" duration="1257.00" routeLength="407.13" waitingTime="1198.00" waitingCount="6" stopTime="0.00" timeLoss="1228.01" rerouteNo="0" devices="tripinfo_veh_11" vType="normal_car" speedFactor="1.03" vaporized=""/>
    <tripinfo id="veh_6" depart="180.00" departLane="E1_0" departPos="5.10" departSpeed="0.00" departDelay="0.00" arrival="1862.00" arrivalLane="E1.200_0" arrivalPos="210.34" arrivalSpeed="13.93" duration="1682.00" routeLength="407.13" waitingTime="1637.00" waitingCount="4" stopTime="0.00" timeLoss="1654.15" rerouteNo="0" devices="tripinfo_veh_6" vType="normal_car" speedFactor="1.05" vaporized=""/>
    <tripinfo id="veh_13" depart="390.00" departLane="E1_0" departPos="5.10" departSpeed="0.00" departDelay="0.00" arrival="1890.00" arrivalLane="E1.200_0" arrivalPos="210.34" arrivalSpeed="15.11" duration="1500.00" routeLength="407.13" waitingTime="1442.00" waitingCount="6" stopTime="0.00" timeLoss="1474.02" rerouteNo="0" devices="tripinfo_veh_13" vType="normal_car" speedFactor="1.12" vaporized=""/>
    <tripinfo id="veh_8" depart="240.00" departLane="E1_0" departPos="5.10" departSpeed="0.00" departDelay="0.00" arrival="2168.00" arrivalLane="E1.200_0" arrivalPos="210.34" arrivalSpeed="12.15" duration="1928.00" routeLength="407.13" waitingTime="1873.00" waitingCount="5" stopTime="0.00" timeLoss="1896.78" rerouteNo="0" devices="tripinfo_veh_8" vType="normal_car" speedFactor="0.94" vaporized=""/>
    <tripinfo id="veh_15" depart="450.00" departLane="E1_0" departPos="5.10" departSpeed="0.00" departDelay="0.00" arrival="2198.00" arrivalLane="E1.200_0" arrivalPos="210.34" arrivalSpeed="11.74" duration="1748.00" routeLength="407.13" waitingTime="1682.00" waitingCount="7" stopTime="0.00" timeLoss="1716.82" rerouteNo="0" devices="tripinfo_veh_15" vType="normal_car" speedFactor="0.93" vaporized=""/>
    <tripinfo id="veh_12" depart="360.00" departLane="E1_0" departPos="5.10" departSpeed="0.00" departDelay="0.00" arrival="2472.00" arrivalLane="E1.200_0" arrivalPos="210.34" arrivalSpeed="14.20" duration="2112.00" routeLength="407.13" waitingTime="2054.00" waitingCount="6" stopTime="0.00" timeLoss="2084.35" rerouteNo="0" devices="tripinfo_veh_12" vType="normal_car" speedFactor="1.05" vaporized=""/>
    <tripinfo id="veh_17" depart="510.00" departLane="E1_0" departPos="5.10" departSpeed="0.00" departDelay="0.00" arrival="2504.00" arrivalLane="E1.200_0" arrivalPos="210.34" arrivalSpeed="12.15" duration="1994.00" routeLength="407.13" waitingTime="1918.00" waitingCount="8" stopTime="0.00" timeLoss="1963.01" rerouteNo="0" devices="tripinfo_veh_17" vType="normal_car" speedFactor="0.94" vaporized=""/>
    <tripinfo id="veh_14" depart="420.00" departLane="E1_0" departPos="5.10" departSpeed="0.00" departDelay="0.00" arrival="2778.00" arrivalLane="E1.200_0" arrivalPos="210.34" arrivalSpeed="12.87" duration="2358.00" routeLength="407.13" waitingTime="2292.00" waitingCount="7" stopTime="0.00" timeLoss="2328.64" rerouteNo="0" devices="tripinfo_veh_14" vType="normal_car" speedFactor="0.99" vaporized=""/>
    <tripinfo id="veh_19" depart="570.00" departLane="E1_0" departPos="5.10" departSpeed="0.00" departDelay="0.00" arrival="2805.00" arrivalLane="E1.200_0" arrivalPos="210.34" arrivalSpeed="14.85" duration="2235.00" routeLength="407.13" waitingTime="2155.00" waitingCount="9" stopTime="0.00" timeLoss="2209.32" rerouteNo="0" devices="tripinfo_veh_19" vType="normal_car" speedFactor="1.16" vaporized=""/>
    <tripinfo id="veh_21" depart="630.00" departLane="E1_0" departPos="5.10" departSpeed="0.00" departDelay="0.00" arrival="3083.00" arrivalLane="E1.200_0" arrivalPos="210.34" arrivalSpeed="13.37" duration="2453.00" routeLength="407.13" waitingTime="2363.00" waitingCount="10" stopTime="0.00" timeLoss="2423.61" rerouteNo="0" devices="tripinfo_veh_21" vType="normal_car" speedFactor="1.01" vaporized=""/>
    <tripinfo id="veh_16" depart="480.00" departLane="E1_0" departPos="5.10" departSpeed="0.00" departDelay="0.00" arrival="3115.00" arrivalLane="E1.200_0" arrivalPos="210.34" arrivalSpeed="11.31" duration="2635.00" routeLength="407.13" waitingTime="2557.00" waitingCount="8" stopTime="0.00" timeLoss="2601.29" rerouteNo="0" devices="tripinfo_veh_16" vType="normal_car" speedFactor="0.88" vaporized=""/>
    <tripinfo id="veh_23" depart="690.00" departLane="E1_0" departPos="5.10" departSpeed="0.00" departDelay="0.00" arrival="3391.00" arrivalLane="E1.200_0" arrivalPos="210.34" arrivalSpeed="11.14" duration="2701.00" routeLength="407.13" waitingTime="2607.00" waitingCount="10" stopTime="0.00" timeLoss="2668.14" rerouteNo="0" devices="tripinfo_veh_23" vType="normal_car" speedFactor="0.89" vaporized=""/>
    <tripinfo id="veh_18" depart="540.00" departLane="E1_0" departPos="5.10" departSpeed="0.00" departDelay="0.00" arrival="3418.00" arrivalLane="E1.200_0" arrivalPos="210.34" arrivalSpeed="11.86" duration="2878.00" routeLength="407.13" waitingTime="2795.00" waitingCount="9" stopTime="0.00" timeLoss="2846.73" rerouteNo="0" devices="tripinfo_veh_18" vType="normal_car" speedFactor="0.94" vaporized=""/>
    <tripinfo id="veh_25" depart="750.00" departLane="E1_0" departPos="5.10" departSpeed="0.00" departDelay="0.00" arrival="3697.00" arrivalLane="E1.200_0" arrivalPos="210.34" arrivalSpeed="11.33" duration="2947.00" routeLength="407.13" waitingTime="2845.00" waitingCount="11" stopTime="0.00" timeLoss="2913.84" rerouteNo="0" devices="tripinfo_veh_25" vType="normal_car" speedFactor="0.87" vaporized=""/>
    <tripinfo id="veh_20" depart="600.00" departLane="E1_0" departPos="5.10" departSpeed="0.00" departDelay="0.00" arrival="3722.00" arrivalLane="E1.200_0" arrivalPos="210.34" arrivalSpeed="13.63" duration="3122.00" routeLength="407.13" waitingTime="3031.00" waitingCount="10" stopTime="0.00" timeLoss="3092.84" rerouteNo="0" devices="tripinfo_veh_20" vType="normal_car" speedFactor="1.02" vaporized=""/>
    <tripinfo id="veh_27" depart="810.00" departLane="E1_0" departPos="5.10" departSpeed="0.00" departDelay="0.00" arrival="4001.00" arrivalLane="E1.200_0" arrivalPos="210.34" arrivalSpeed="12.85" duration="3191.00" routeLength="407.13" waitingTime="3084.00" waitingCount="12" stopTime="0.00" timeLoss="3159.93" rerouteNo="0" devices="tripinfo_veh_27" vType="normal_car" speedFactor="0.95" vaporized=""/>
    <tripinfo id="veh_29" depart="870.00" departLane="E1_0" departPos="5.10" departSpeed="0.00" departDelay="0.00" arrival="4029.00" arrivalLane="E1.200_0" arrivalPos="210.34" arrivalSpeed="11.97" duration="3159.00" routeLength="407.13" waitingTime="3041.00" waitingCount="13" stopTime="0.00" timeLoss="3127.92" rerouteNo="0" devices="tripinfo_veh_29" vType="normal_car" speedFactor="0.93" vaporized=""/>
    <tripinfo id="veh_22" depart="660.00" departLane="E1_0" departPos="5.10" departSpeed="0.00" departDelay="0.00" arrival="4305.00" arrivalLane="E1.200_0" arrivalPos="210.34" arrivalSpeed="12.66" duration="3645.00" routeLength="407.13" waitingTime="3556.00" waitingCount="10" stopTime="0.00" timeLoss="3615.14" rerouteNo="0" devices="tripinfo_veh_22" vType="normal_car" speedFactor="0.97" vaporized=""/>
    <tripinfo id="veh_31" depart="930.00" departLane="E1_0" departPos="5.10" departSpeed="0.00" departDelay="0.00" arrival="4331.00" arrivalLane="E1.200_0" arrivalPos="210.34" arrivalSpeed="14.98" duration="3401.00" routeLength="407.13" waitingTime="3277.00" waitingCount="14" stopTime="0.00" timeLoss="3375.35" rerouteNo="0" devices="tripinfo_veh_31" vType="normal_car" speedFactor="1.15" vaporized=""/>
    <tripinfo id="veh_24" depart="720.00" departLane="E1_0" departPos="5.10" departSpeed="0.00" departDelay="0.00" arrival="4614.00" arrivalLane="E1.200_0" arrivalPos="210.34" arrivalSpeed="10.37" duration="3894.00" routeLength="407.13" waitingTime="3790.00" waitingCount="11" stopTime="0.00" timeLoss="3858.23" rerouteNo="0" devices="tripinfo_veh_24" vType="normal_car" speedFactor="0.83" vaporized=""/>
    <tripinfo id="veh_33" depart="990.00" departLane="E1_0" departPos="5.10" departSpeed="0.00" departDelay="0.00" arrival="4635.00" arrivalLane="E1.200_0" arrivalPos="210.34" arrivalSpeed="16.20" duration="3645.00" routeLength="407.13" waitingTime="3521.00" waitingCount="15" stopTime="0.00" timeLoss="3619.51" rerouteNo="0" devices="tripinfo_veh_33" vType="normal_car" speedFactor="1.17" vaporized=""/>
    <tripinfo id="veh_35" depart="1050.00" departLane="E1_0" departPos="5.10" departSpeed="0.00" departDelay="0.00" arrival="4915.00" arrivalLane="E1.200_0" arrivalPos="210.34" arrivalSpeed="13.54" duration="3865.00" routeLength="407.13" waitingTime="3726.00" waitingCount="15" stopTime="0.00" timeLoss="3835.94" rerouteNo="0" devices="tripinfo_veh_35" vType="normal_car" speedFactor="1.02" vaporized=""/>
    <tripinfo id="veh_37" depart="1110.00" departLane="E1_0" departPos="5.10" departSpeed="0.00" departDelay="0.00" arrival="4941.00" arrivalLane="E1.200_0" arrivalPos="210.34" arrivalSpeed="16.37" duration="3831.00" routeLength="407.13" waitingTime="3684.00" waitingCount="17" stopTime="0.00" timeLoss="3805.69" rerouteNo="0" devices="tripinfo_veh_37" vType="normal_car" speedFactor="1.18" vaporized=""/>
    <tripinfo id="veh_26" depart="780.00" departLane="E1_0" departPos="5.10" departSpeed="0.00" departDelay="0.00" arrival="5222.00" arrivalLane="E1.200_0" arrivalPos="210.34" arrivalSpeed="12.03" duration="4442.00" routeLength="407.13" waitingTime="4326.00" waitingCount="12" stopTime="0.00" timeLoss="4409.65" rerouteNo="0" devices="tripinfo_veh_26" vType="normal_car" speedFactor="0.92" vaporized=""/>
    <tripinfo id="veh_39" depart="1170.00" departLane="E1_0" departPos="5.10" departSpeed="0.00" departDelay="0.00" arrival="5250.00" arrivalLane="E1.200_0" arrivalPos="210.34" arrivalSpeed="12.37" duration="4080.00" routeLength="407.13" waitingTime="3919.00" waitingCount="18" stopTime="0.00" timeLoss="4047.32" rerouteNo="0" devices="tripinfo_veh_39" vType="normal_car" speedFactor="0.90" vaporized=""/>
    <tripinfo id="veh_41" depart="1230.00" departLane="E1_0" departPos="5.10" departSpeed="0.00" departDelay="0.00" arrival="5526.00" arrivalLane="E1.200_0" arrivalPos="210.34" arrivalSpeed="12.27" duration="4296.00" routeLength="407.13" waitingTime="4124.00" waitingCount="19" stopTime="0.00" timeLoss="4265.01" rerouteNo="0" devices="tripinfo_veh_41" vType="normal_car" speedFactor="0.96" vaporized=""/>
    <tripinfo id="veh_42" depart="1260.00" departLane="E1_0" departPos="5.10" departSpeed="0.00" departDelay="0.00" arrival="5553.00" arrivalLane="E1.200_0" arrivalPos="210.34" arrivalSpeed="14.60" duration="4293.00" routeLength="407.13" waitingTime="4120.00" waitingCount="18" stopTime="0.00" timeLoss="4265.69" rerouteNo="0" devices="tripinfo_veh_42" vType="normal_car" speedFactor="1.09" vaporized=""/>
    <tripinfo id="veh_657" depart="5360.00" departLane="-E1_0" departPos="5.10" departSpeed="0.00" departDelay="0.00" arrival="5698.00" arrivalLane="-E1.238_0" arrivalPos="201.89" arrivalSpeed="12.41" duration="338.00" routeLength="407.13" waitingTime="301.00" waitingCount="1" stopTime="0.00" timeLoss="307.37" rerouteNo="0" devices="tripinfo_veh_657" vType="normal_car" speedFactor="0.96" vaporized=""/>
    <tripinfo id="veh_910" depart="5360.00" departLane="E0_0" departPos="5.10" departSpeed="0.00" departDelay="0.00" arrival="5702.00" arrivalLane="E0.319_0" arrivalPos="279.39" arrivalSpeed="15.09" duration="342.00" routeLength="549.05" waitingTime="301.00" waitingCount="1" stopTime="0.00" timeLoss="308.16" rerouteNo="0" devices="tripinfo_veh_910" vType="normal_car" speedFactor="1.17" vaporized=""/>
    <tripinfo id="veh_911" depart="5364.00" departLane="E0_0" departPos="5.10" departSpeed="0.00" departDelay="0.00" arrival="5709.00" arrivalLane="E0.319_1" arrivalPos="279.39" arrivalSpeed="15.14" duration="345.00" routeLength="549.05" waitingTime="301.00" waitingCount="1" stopTime="0.00" timeLoss="309.32" rerouteNo="0" devices="tripinfo_veh_911" vType="normal_car" speedFactor="1.11" vaporized=""/>
    <tripinfo id="veh_28" depart="840.00" departLane="E1_0" departPos="5.10" departSpeed="0.00" departDelay="0.00" arrival="5828.00" arrivalLane="E1.200_0" arrivalPos="210.34" arrivalSpeed="14.45" duration="4988.00" routeLength="407.13" waitingTime="4873.00" waitingCount="13" stopTime="0.00" timeLoss="4962.14" rerouteNo="0" devices="tripinfo_veh_28" vType="normal_car" speedFactor="1.13" vaporized=""/>
    <tripinfo id="veh_43" depart="1290.00" departLane="E1_0" departPos="5.10" departSpeed="0.00" departDelay="0.00" arrival="5858.00" arrivalLane="E1.200_0" arrivalPos="210.34" arrivalSpeed="13.93" duration="4568.00" routeLength="407.13" waitingTime="4393.00" waitingCount="22" stopTime="0.00" timeLoss="4540.17" rerouteNo="0" devices="tripinfo_veh_43" vType="normal_car" speedFactor="1.04" vaporized=""/>
    <tripinfo id="veh_913" depart="5372.00" departLane="E0_0" departPos="5.10" departSpeed="0.00" departDelay="0.00" arrival="6010.00" arrivalLane="E0.319_0" arrivalPos="279.39" arrivalSpeed="12.95" duration="638.00" routeLength="549.05" waitingTime="587.00" waitingCount="2" stopTime="0.00" timeLoss="598.57" rerouteNo="0" devices="tripinfo_veh_913" vType="normal_car" speedFactor="1.00" vaporized=""/>
    <tripinfo id="veh_912" depart="5368.00" departLane="E0_0" departPos="5.10" departSpeed="0.00" departDelay="0.00" arrival="6020.00" arrivalLane="E0.319_0" arrivalPos="279.39" arrivalSpeed="11.44" duration="652.00" routeLength="549.05" waitingTime="595.00" waitingCount="2" stopTime="0.00" timeLoss="606.15" rerouteNo="0" devices="tripinfo_veh_912" vType="normal_car" speedFactor="0.86" vaporized=""/>
    <tripinfo id="veh_30" depart="900.00" departLane="E1_0" departPos="5.10" departSpeed="0.00" departDelay="0.00" arrival="6134.00" arrivalLane="E1.200_0" arrivalPos="210.34" arrivalSpeed="15.60" duration="5234.00" routeLength="407.13" waitingTime="5109.00" waitingCount="15" stopTime="0.00" timeLoss="5208.61" rerouteNo="0" devices="tripinfo_veh_30" vType="normal_car" speedFactor="1.18" vaporized=""/>
    <tripinfo id="veh_45" depart="1350.00" departLane="E1_0" departPos="5.10" departSpeed="0.00" departDelay="0.00" arrival="6163.00" arrivalLane="E1.200_0" arrivalPos="210.34" arrivalSpeed="14.59" duration="4813.00" routeLength="407.13" waitingTime="4630.00" waitingCount="22" stopTime="0.00" timeLoss="4785.64" rerouteNo="0" devices="tripinfo_veh_45" vType="normal_car" speedFactor="1.09" vaporized=""/>
    <tripinfo id="veh_915" depart="5380.00" departLane="E0_0" departPos="5.10" departSpeed="0.00" departDelay="0.00" arrival="6318.00" arrivalLane="E0.319_0" arrivalPos="279.39" arrivalSpeed="12.82" duration="938.00" routeLength="549.05" waitingTime="881.00" waitingCount="3" stopTime="0.00" timeLoss="897.30" rerouteNo="0" devices="tripinfo_veh_915" vType="normal_car" speedFactor="0.98" vaporized=""/>
    <tripinfo id="veh_914" depart="5376.00" departLane="E0_0" departPos="5.10" departSpeed="0.00" departDelay="0.00" arrival="6323.00" arrivalLane="E0.319_0" arrivalPos="279.39" arrivalSpeed="12.38" duration="947.00" routeLength="549.05" waitingTime="889.00" waitingCount="3" stopTime="0.00" timeLoss="904.97" rerouteNo="0" devices="tripinfo_veh_914" vType="normal_car" speedFactor="0.95" vaporized=""/>
    <tripinfo id="veh_47" depart="1410.00" departLane="E1_0" departPos="5.10" departSpeed="0.00" departDelay="0.00" arrival="6442.00" arrivalLane="E1.200_0" arrivalPos="210.34" arrivalSpeed="11.33" duration="5032.00" routeLength="407.13" waitingTime="4834.00" waitingCount="25" stopTime="0.00" timeLoss="4999.29" rerouteNo="0" devices="tripinfo_veh_47" vType="normal_car" speedFactor="0.90" vaporized=""/>
    <tripinfo id="veh_49" depart="1470.00" departLane="E1_0" departPos="5.10" departSpeed="0.00" departDelay="0.00" arrival="6472.00" arrivalLane="E1.200_0" arrivalPos="210.34" arrivalSpeed="11.11" duration="5002.00" routeLength="407.13" waitingTime="4788.00" waitingCount="24" stopTime="0.00" timeLoss="4967.67" rerouteNo="0" devices="tripinfo_veh_49" vType="normal_car" speedFactor="0.85" vaporized=""/>
    <tripinfo id="veh_917" depart="5388.00" departLane="E0_0" departPos="5.10" departSpeed="0.00" departDelay="0.00" arrival="6621.00" arrivalLane="E0.319_0" arrivalPos="279.39" arrivalSpeed="15.29" duration="1233.00" routeLength="549.05" waitingTime="1176.00" waitingCount="4" stopTime="0.00" timeLoss="1197.31" rerouteNo="0" devices="tripinfo_veh_917" vType="normal_car" speedFactor="1.11" vaporized=""/>
    <tripinfo id="veh_916" depart="5384.00" departLane="E0_0" departPos="5.10" departSpeed="0.00" departDelay="0.00" arrival="6628.00" arrivalLane="E0.319_0" arrivalPos="279.39" arrivalSpeed="12.62" duration="1244.00" routeLength="549.05" waitingTime="1180.00" waitingCount="4" stopTime="0.00" timeLoss="1201.62" rerouteNo="0" devices="tripinfo_veh_916" vType="normal_car" speedFactor="0.94" vaporized=""/>
    <tripinfo id="veh_32" depart="960.00" departLane="E1_0" departPos="5.10" departSpeed="0.00" departDelay="0.00" arrival="6745.00" arrivalLane="E1.200_0" arrivalPos="210.34" arrivalSpeed="13.03" duration="5785.00" routeLength="407.13" waitingTime="5659.00" waitingCount="14" stopTime="0.00" timeLoss="5755.75" rerouteNo="0" devices="tripinfo_veh_32" vType="normal_car" speedFactor="1.01" vaporized=""/>
    <tripinfo id="veh_51" depart="1530.00" departLane="E1_0" departPos="5.10" departSpeed="0.00" departDelay="0.00" arrival="6771.00" arrivalLane="E1.200_0" arrivalPos="210.34" arrivalSpeed="16.15" duration="5241.00" routeLength="407.13" waitingTime="5022.00" waitingCount="26" stopTime="0.00" timeLoss="5215.55" rerouteNo="0" devices="tripinfo_veh_51" vType="normal_car" speedFactor="1.17" vaporized=""/>
    <tripinfo id="veh_919" depart="5396.00" departLane="E0_0" departPos="5.10" departSpeed="0.00" departDelay="0.00" arrival="6925.00" arrivalLane="E0.319_0" arrivalPos="279.39" arrivalSpeed="14.86" duration="1529.00" routeLength="549.05" waitingTime="1465.00" waitingCount="5" stopTime="0.00" timeLoss="1493.72" rerouteNo="0" devices="tripinfo_veh_919" vType="normal_car" speedFactor="1.13" vaporized=""/>
    <tripinfo id="veh_918" depart="5392.00" departLane="E0_0" departPos="5.10" departSpeed="0.00" departDelay="0.00" arrival="6936.00" arrivalLane="E0.319_0" arrivalPos="279.39" arrivalSpeed="10.14" duration="1544.00" routeLength="549.05" waitingTime="1468.00" waitingCount="5" stopTime="0.00" timeLoss="1496.10" rerouteNo="0" devices="tripinfo_veh_918" vType="normal_car" speedFactor="0.82" vaporized=""/>
    <tripinfo id="veh_53" depart="1590.00" departLane="E1_0" departPos="5.10" departSpeed="0.00" departDelay="0.00" arrival="7048.00" arrivalLane="E1.200_0" arrivalPos="210.34" arrivalSpeed="14.04" duration="5458.00" routeLength="407.13" waitingTime="5232.00" waitingCount="24" stopTime="0.00" timeLoss="5430.83" rerouteNo="0" devices="tripinfo_veh_53" vType="normal_car" speedFactor="1.10" vaporized=""/>
    <tripinfo id="veh_34" depart="1020.00" departLane="E1_0" departPos="5.10" departSpeed="0.00" departDelay="0.00" arrival="7079.00" arrivalLane="E1.200_0" arrivalPos="210.34" arrivalSpeed="13.57" duration="6059.00" routeLength="407.13" waitingTime="5920.00" waitingCount="15" stopTime="0.00" timeLoss="6029.53" rerouteNo="0" devices="tripinfo_veh_34" vType="normal_car" speedFactor="0.99" vaporized=""/>
    <tripinfo id="veh_55" depart="1650.00" departLane="E1_0" departPos="5.10" departSpeed="0.00" departDelay="0.00" arrival="7353.00" arrivalLane="E1.200_0" arrivalPos="210.34" arrivalSpeed="13.34" duration="5703.00" routeLength="407.13" waitingTime="5481.00" waitingCount="28" stopTime="0.00" timeLoss="5673.59" rerouteNo="0" devices="tripinfo_veh_55" vType="normal_car" speedFactor="1.00" vaporized=""/>
    <tripinfo id="veh_57" depart="1710.00" departLane="E1_0" departPos="5.10" departSpeed="0.00" departDelay="0.00" arrival="7382.00" arrivalLane="E1.200_0" arrivalPos="210.34" arrivalSpeed="15.07" duration="5672.00" routeLength="407.13" waitingTime="5431.00" waitingCount="28" stopTime="0.00" timeLoss="5646.12" rerouteNo="0" devices="tripinfo_veh_57" vType="normal_car" speedFactor="1.14" vaporized=""/>
    <tripinfo id="veh_36" depart="1080.00" departLane="E1_0" departPos="5.10" departSpeed="0.00" departDelay="0.00" arrival="7659.00" arrivalLane="E1.200_0" arrivalPos="210.34" arrivalSpeed="13.23" duration="6579.00" routeLength="407.13" waitingTime="6432.00" waitingCount="17" stopTime="0.00" timeLoss="6549.33" rerouteNo="0" devices="tripinfo_veh_36" vType="normal_car" speedFactor="0.97" vaporized=""/>
    <tripinfo id="veh_59" depart="1770.00" departLane="E1_0" departPos="5.10" departSpeed="0.00" departDelay="0.00" arrival="7690.00" arrivalLane="E1.200_0" arrivalPos="210.34" arrivalSpeed="13.24" duration="5920.00" routeLength="407.13" waitingTime="5666.00" waitingCount="26" stopTime="0.00" timeLoss="5889.35" rerouteNo="0" devices="tripinfo_veh_59" vType="normal_car" speedFactor="0.97" vaporized=""/>
    <tripinfo id="veh_38" depart="1140.00" departLane="E1_0" departPos="5.10" departSpeed="0.00" departDelay="0.00" arrival="7961.00" arrivalLane="E1.200_0" arrivalPos="210.34" arrivalSpeed="15.07" duration="6821.00" routeLength="407.13" waitingTime="6669.00" waitingCount="18" stopTime="0.00" timeLoss="6794.80" rerouteNo="0" devices="tripinfo_veh_38" vType="normal_car" speedFactor="1.10" vaporized=""/>
    <tripinfo id="veh_211" depart="1845.00" departLane="E1_0" departPos="5.10" departSpeed="0.00" departDelay="0.00" arrival="7992.00" arrivalLane="E1.200_0" arrivalPos="210.34" arrivalSpeed="14.58" duration="6147.00" routeLength="407.13" waitingTime="5885.00" waitingCount="26" stopTime="0.00" timeLoss="6121.10" rerouteNo="0" devices="tripinfo_veh_211" vType="normal_car" speedFactor="1.12" vaporized=""/>
    <tripinfo id="veh_213" depart="1895.00" departLane="E1_0" departPos="5.10" departSpeed="0.00" departDelay="0.70" arrival="8269.00" arrivalLane="E1.200_0" arrivalPos="210.34" arrivalSpeed="13.41" duration="6374.00" routeLength="407.13" waitingTime="6101.00" waitingCount="27" stopTime="0.00" timeLoss="6344.38" rerouteNo="0" devices="tripinfo_veh_213" vType="normal_car" speedFactor="0.99" vaporized=""/>
    <tripinfo id="veh_40" depart="1200.00" departLane="E1_0" departPos="5.10" departSpeed="0.00" departDelay="0.00" arrival="8299.00" arrivalLane="E1.200_0" arrivalPos="210.34" arrivalSpeed="13.20" duration="7099.00" routeLength="407.13" waitingTime="6930.00" waitingCount="18" stopTime="0.00" timeLoss="7070.11" rerouteNo="0" devices="tripinfo_veh_40" vType="normal_car" speedFactor="1.03" vaporized=""/>
    <tripinfo id="veh_215" depart="2191.00" departLane="E1_0" departPos="5.10" departSpeed="0.00" departDelay="243.20" arrival="8577.00" arrivalLane="E1.200_0" arrivalPos="210.34" arrivalSpeed="11.64" duration="6386.00" routeLength="407.13" waitingTime="6105.00" waitingCount="30" stopTime="0.00" timeLoss="6352.86" rerouteNo="0" devices="tripinfo_veh_215" vType="normal_car" speedFactor="0.88" vaporized=""/>
    <tripinfo id="veh_44" depart="1320.00" departLane="E1_0" departPos="5.10" departSpeed="0.00" departDelay="0.00" arrival="8603.00" arrivalLane="E1.200_0" arrivalPos="210.34" arrivalSpeed="13.90" duration="7283.00" routeLength="407.13" waitingTime="7108.00" waitingCount="21" stopTime="0.00" timeLoss="7255.05" rerouteNo="0" devices="tripinfo_veh_44" vType="normal_car" speedFactor="1.04" vaporized=""/>
    <tripinfo id="veh_217" depart="2495.00" departLane="E1_0" departPos="5.10" departSpeed="0.00" departDelay="515.00" arrival="8881.00" arrivalLane="E1.200_0" arrivalPos="210.34" arrivalSpeed="12.29" duration="6386.00" routeLength="407.13" waitingTime="6109.00" waitingCount="31" stopTime="0.00" timeLoss="6354.39" rerouteNo="0" devices="tripinfo_veh_217" vType="normal_car" speedFactor="0.91" vaporized=""/>
    <tripinfo id="veh_218" depart="2516.00" departLane="E1_0" departPos="5.10" departSpeed="0.00" departDelay="512.70" arrival="8909.00" arrivalLane="E1.200_0" arrivalPos="210.34" arrivalSpeed="14.05" duration="6393.00" routeLength="407.13" waitingTime="6109.00" waitingCount="31" stopTime="0.00" timeLoss="6365.01" rerouteNo="0" devices="tripinfo_veh_218" vType="normal_car" speedFactor="1.04" vaporized=""/>
    <tripinfo id="veh_3331" depart="9000.00" departLane="-E0_0" departPos="5.10" departSpeed="0.00" departDelay="0.00" arrival="9038.00" arrivalLane="-E0.254_0" arrivalPos="274.83" arrivalSpeed="16.57" duration="38.00" routeLength="570.03" waitingTime="0.00" waitingCount="0" stopTime="0.00" timeLoss="4.72" rerouteNo="0" devices="tripinfo_veh_3331" vType="normal_car" speedFactor="1.26" vaporized=""/>
    <tripinfo id="veh_220" depart="2830.00" departLane="E1_0" departPos="5.10" departSpeed="0.00" departDelay="790.00" arrival="9185.00" arrivalLane="E1.200_0" arrivalPos="210.34" arrivalSpeed="13.06" duration="6355.00" routeLength="407.13" waitingTime="6067.00" waitingCount="29" stopTime="0.00" timeLoss="6326.73" rerouteNo="0" devices="tripinfo_veh_220" vType="normal_car" speedFactor="1.02" vaporized=""/>